12
Lattice="0.0 0.0 0.0 0.0 0.0 0.0 0.0 0.0 0.0" Properties=species:S:1:pos:R:3:forces:R:3 energy=-44228.20666987 pbc="F F F"
Al		-0.09728889		1.61860318		2.18259978		0.0005837		-0.00013394		-0.00037187
Al		2.50575868		2.59865690		1.78277935		0.00085236		0.00075266		0.00081215
Al		1.34891577		2.66487794		-0.67513430		-0.00074641		-0.00020764		-0.00076574
F		1.07332023		2.93111288		2.86513720		-0.0001219		-0.00015189		-0.00013205
F		-1.40143455		2.65373746		2.03272596		-0.00010576		-7.493e-05		4.8e-07
F		-0.48740295		0.17023896		2.89535914		2.17e-06		0.000119		9.356e-05
F		1.76201494		0.98796308		1.86499338		-0.00056162		-0.00057554		0.00015315
F		2.87103817		1.99952584		-0.07613300		0.00034596		-0.00011163		-0.00027573
F		1.14358392		3.08224075		-2.24901050		0.00025156		-7.991e-05		0.00024944
F		1.63508605		3.84592503		0.63925714		-0.00016546		0.00077684		-6.43e-05
F		3.96293340		3.06185026		2.38721158		-0.00048341		-0.00044816		-0.00017829
F		0.12992423		1.74554172		0.16214027		0.0001488		0.00013515		0.00047919
12
Lattice="0.0 0.0 0.0 0.0 0.0 0.0 0.0 0.0 0.0" Properties=species:S:1:pos:R:3:forces:R:3 energy=-44222.36186766 pbc="F F F"
Al		-0.09734948		1.61867665		2.18263681		0.00169867		-0.00033454		-0.00119218
Al		2.50577733		2.59857858		1.78280966		0.00059444		0.0011677		0.00021222
Al		1.34891399		2.66479761		-0.67512238		-0.00127341		-0.00012181		-0.00067481
F		1.07336930		2.93089719		2.86529249		7.6e-06		0.00024462		-1.031e-05
F		-1.40136704		2.65390695		2.03268982		-0.00070309		0.00027822		-7.729e-05
F		-0.48739496		0.17034739		2.89543446		-0.00021438		-0.00043395		0.00033577
F		1.76207024		0.98790729		1.86482724		-0.00102037		-0.00055198		0.0002135
F		2.87109345		1.99959001		-0.07622326		0.00068167		-0.00025894		0.00021329
F		1.14370694		3.08225459		-2.24898206		9.507e-05		-6.93e-06		-9.013e-05
F		1.63491973		3.84580596		0.63934631		1.907e-05		0.00047698		0.00026726
F		3.96288230		3.06204851		2.38718639		-0.00034449		-0.00062243		-0.0001052
F		0.12982718		1.74546327		0.16203052		0.00045923		0.00016305		0.00090789
12
Lattice="0.0 0.0 0.0 0.0 0.0 0.0 0.0 0.0 0.0" Properties=species:S:1:pos:R:3:forces:R:3 energy=-44220.77854408 pbc="F F F"
Al		-0.09743748		1.61879265		2.18270663		0.00260788		-0.00117314		-0.00227159
Al		2.50581317		2.59852896		1.78285667		-0.00075487		0.00087804		-0.0015489
Al		1.34890668		2.66474101		-0.67512957		-0.00107995		-8.743e-05		0.00053283
F		1.07335085		2.93072568		2.86535719		0.00051157		0.00089552		0.00023508
F		-1.40142414		2.65403509		2.03295824		-0.00132342		0.00071273		-0.00022835
F		-0.48738127		0.17033413		2.89524388		-0.00033334		-0.00085773		0.00064192
F		1.76219360		0.98784272		1.86468904		-0.00146844		0.00022446		0.00045419
F		2.87114928		1.99964056		-0.07635737		0.00052966		-8.791e-05		0.0010506
F		1.14393167		3.08204984		-2.24903330		-0.00036742		0.00026434		-0.00086081
F		1.63481943		3.84580135		0.63935252		0.00048779		-0.00059284		0.00066198
F		3.96282936		3.06221154		2.38719616		0.0004678		-0.00043619		0.00028012
F		0.12969786		1.74557047		0.16208591		0.00072276		0.00026015		0.00105294
12
Lattice="0.0 0.0 0.0 0.0 0.0 0.0 0.0 0.0 0.0" Properties=species:S:1:pos:R:3:forces:R:3 energy=-44220.75056021 pbc="F F F"
Al		-0.09752894		1.61897959		2.18279256		0.00143647		-0.00339937		-0.00251705
Al		2.50587850		2.59854004		1.78287359		-0.00252433		5.845e-05		-0.00362434
Al		1.34888414		2.66472178		-0.67517645		0.00044563		0.00027649		0.00226554
F		1.07324206		2.93066827		2.86525844		0.0013474		0.00218798		0.00057663
F		-1.40172425		2.65409131		2.03373402		-0.00080336		0.00042915		-0.00043724
F		-0.48734991		0.17005740		2.89456765		-5.55e-06		0.00029921		0.00033625
F		1.76239227		0.98782802		1.86470603		-0.00163786		0.00129453		7.696e-05
F		2.87124844		1.99973846		-0.07652246		-0.00068521		3.617e-05		0.00207289
F		1.14422294		3.08143960		-2.24926270		-0.00102375		0.00057011		-0.0011127
F		1.63488493		3.84595074		0.63923293		0.00087634		-0.00211165		0.00077465
F		3.96279256		3.06223957		2.38731864		0.00160732		0.00013651		0.0007374
F		0.12950626		1.74601922		0.16240374		0.00096691		0.00022242		0.00085102
12
Lattice="0.0 0.0 0.0 0.0 0.0 0.0 0.0 0.0 0.0" Properties=species:S:1:pos:R:3:forces:R:3 energy=-44220.69378815 pbc="F F F"
Al		-0.09760194		1.61931462		2.18287171		-0.00314739		-0.00678121		-0.00223593
Al		2.50597822		2.59864752		1.78278900		-0.00290851		-0.00105897		-0.00379405
Al		1.34893601		2.66479103		-0.67519468		0.00238477		0.00057547		0.00295564
F		1.07295475		2.93089773		2.86484279		0.00295601		0.00320668		0.0011885
F		-1.40245588		2.65396919		2.03509544		0.00173314		-0.00107524		-0.00051779
F		-0.48714515		0.16947554		2.89322524		0.00078304		0.00313999		-0.00038225
F		1.76265623		0.98797474		1.86463193		-0.00178639		0.00195314		0.00115642
F		2.87135681		1.99976781		-0.07657865		-0.0019008		0.00078951		0.001727
F		1.14436754		3.08021157		-2.24965927		-0.00136715		0.00094624		0.00010951
F		1.63526598		3.84626774		0.63905340		0.00118465		-0.00275541		-0.00051771
F		3.96279125		3.06199331		2.38770361		0.00187608		0.00086851		0.00066584
F		0.12934519		1.74696319		0.16314548		0.00019254		0.00019128		-0.00035518
12
Lattice="0.0 0.0 0.0 0.0 0.0 0.0 0.0 0.0 0.0" Properties=species:S:1:pos:R:3:forces:R:3 energy=-44220.69040360 pbc="F F F"
Al		-0.09772980		1.61981703		2.18260932		-0.01123339		-0.01074093		0.00189952
Al		2.50616670		2.59860306		1.78251675		0.00099541		0.00047107		0.00208584
Al		1.34908347		2.66486754		-0.67513314		0.00357441		0.00262715		-0.00145573
F		1.07248174		2.93106650		2.86416588		0.00460552		0.00577307		0.00156639
F		-1.40366899		2.65365741		2.03614050		0.00655488		-0.00411575		-0.00041815
F		-0.48651695		0.16911424		2.89211967		0.00156338		0.00778177		-0.00258758
F		1.76304763		0.98826110		1.86466570		-0.00173635		-0.00132402		-0.00030495
F		2.87165574		2.00000199		-0.07670615		-0.00232447		-0.00102192		0.00029578
F		1.14385807		3.07888539		-2.25000784		-0.00066042		0.00058622		0.00455874
F		1.63610105		3.84640551		0.63900557		-0.00047152		2.805e-05		-0.00295883
F		3.96279257		3.06142215		2.38851339		-0.00035502		0.00090849		-0.00100358
F		0.12917776		1.74817206		0.16403636		-0.00051245		-0.0009732		-0.00167746
12
Lattice="0.0 0.0 0.0 0.0 0.0 0.0 0.0 0.0 0.0" Properties=species:S:1:pos:R:3:forces:R:3 energy=-44220.69011456 pbc="F F F"
Al		-0.09818497		1.62050603		2.18180858		-0.01570641		-0.01107381		0.00510402
Al		2.50648300		2.59813219		1.78222496		0.0073289		0.00351163		0.01304409
Al		1.34968532		2.66514277		-0.67474490		-0.00025653		0.00323138		-0.00882175
F		1.07147104		2.93125134		2.86289318		0.0076113		0.00581419		0.00171792
F		-1.40557487		2.65283394		2.03558854		0.00995463		-0.00592625		0.00048384
F		-0.48516285		0.16978552		2.89230978		0.00082707		0.00754857		-0.00317148
F		1.76385713		0.98839553		1.86405571		-0.00361033		-0.00647666		0.0032326
F		2.87193402		1.99968246		-0.07692932		0.00133288		-0.001579		-0.00364191
F		1.14188115		3.07833331		-2.24960001		0.00156158		0.00035543		0.00827215
F		1.63765342		3.84634207		0.63935850		-0.00200468		0.00602473		-0.0072277
F		3.96277321		3.06066691		2.38967007		-0.00449469		0.00012407		-0.003665
F		0.12963341		1.74920193		0.16529090		-0.00254372		-0.00155429		-0.00532678
12
Lattice="0.0 0.0 0.0 0.0 0.0 0.0 0.0 0.0 0.0" Properties=species:S:1:pos:R:3:forces:R:3 energy=-44220.69017857 pbc="F F F"
Al		-0.09910923		1.62098161		2.18037125		-0.00955032		-0.00750461		0.01017234
Al		2.50693188		2.59704050		1.78220726		0.00984716		0.00826761		0.02175307
Al		1.35046487		2.66546742		-0.67432347		-0.00539784		0.00383007		-0.01308056
F		1.07021175		2.93095177		2.86142542		0.00926912		0.00742463		0.00015143
F		-1.40754290		2.65168980		2.03323192		0.00723757		-0.00338025		0.0010316
F		-0.48375876		0.17156425		2.89420858		-0.00193422		0.00062578		-0.00250125
F		1.76516634		0.98796182		1.86443300		-0.00589218		-0.0122865		0.00080419
F		2.87226416		1.99910786		-0.07768303		0.004989		-0.0055452		-0.00452161
F		1.13887102		3.07954356		-2.24839476		0.00370636		-6.486e-05		0.00711769
F		1.63987890		3.84602882		0.63962736		-0.00510864		0.01202447		-0.00790288
F		3.96269379		3.06036332		2.39050674		-0.00606277		-0.00090425		-0.0050374
F		0.13037717		1.74957328		0.16631574		-0.00110325		-0.00248688		-0.00798661
12
Lattice="0.0 0.0 0.0 0.0 0.0 0.0 0.0 0.0 0.0" Properties=species:S:1:pos:R:3:forces:R:3 energy=-44220.69010355 pbc="F F F"
Al		-0.10062159		1.62117311		2.17880979		0.00812623		-0.00063487		0.00959546
Al		2.50744459		2.59554427		1.78282290		0.00167647		0.0081857		0.01764588
Al		1.35164406		2.66623893		-0.67386904		-0.01139825		-0.00076759		-0.00541407
F		1.06839936		2.93099942		2.85924276		0.01135006		0.00391117		-0.00226459
F		-1.40984964		2.65005788		2.02993579		-0.00111923		0.00306317		0.00206965
F		-0.48277192		0.17373439		2.89680145		-0.00524813		-0.0121397		0.00096028
F		1.76724963		0.98662323		1.86532921		-0.01039658		-0.00896681		0.00455047
F		2.87217627		1.99708327		-0.07878551		0.00677415		-0.00307015		-0.00267199
F		1.13518732		3.08231076		-2.24644207		0.00465913		0.00049475		-0.00213827
F		1.64283702		3.84631195		0.63950090		-0.00402999		0.01046079		-0.00605655
F		3.96266682		3.06076680		2.39052357		-0.00187455		-0.0007246		-0.00257181
F		0.13208708		1.74943000		0.16805624		0.00148069		0.00018813		-0.01370447
12
Lattice="0.0 0.0 0.0 0.0 0.0 0.0 0.0 0.0 0.0" Properties=species:S:1:pos:R:3:forces:R:3 energy=-44220.69009929 pbc="F F F"
Al		-0.10198866		1.62103001		2.17772741		0.02442207		0.00355726		0.01021358
Al		2.50785265		2.59447367		1.78363245		-0.0095631		0.00628842		0.00545093
Al		1.35249612		2.66702470		-0.67382762		-0.01084906		-0.00440267		0.00726209
F		1.06687204		2.93161292		2.85698295		0.01096305		0.00288942		-0.0047029
F		-1.41189003		2.64855468		2.02940171		-0.00937217		0.00949044		0.00162812
F		-0.48281250		0.17413706		2.89670576		-0.00719592		-0.0214312		0.00374945
F		1.76921048		0.98532681		1.86811176		-0.01268585		-0.00234019		0.00120952
F		2.87179245		1.99495954		-0.07967561		0.00332726		-0.00217276		0.0023209
F		1.13284472		3.08414032		-2.24537628		0.00378636		0.00071569		-0.01106184
F		1.64602811		3.84727621		0.63829522		-0.00340112		0.00468653		-0.00049427
F		3.96277041		3.06165211		2.38990641		0.00441608		0.00024396		0.00134491
F		0.13327322		1.75008595		0.17004183		0.0061524		0.0024751		-0.01692049
12
Lattice="0.0 0.0 0.0 0.0 0.0 0.0 0.0 0.0 0.0" Properties=species:S:1:pos:R:3:forces:R:3 energy=-44220.69010099 pbc="F F F"
Al		-0.10388928		1.62055953		2.17712735		0.03365679		0.00248074		0.00979314
Al		2.50816159		2.59355906		1.78514253		-0.02115725		-0.00063612		-0.02394269
Al		1.35371572		2.66882516		-0.67408292		-0.00444922		-0.01062063		0.02560657
F		1.06449830		2.93441332		2.85240388		0.00738881		-0.00252517		-0.00479356
F		-1.41562671		2.64634036		2.03288608		-0.00987888		0.00999605		0.00147198
F		-0.48410204		0.17142491		2.89214091		-0.00488616		-0.01912243		0.00342226
F		1.77232993		0.98338907		1.87392740		-0.01620199		0.01636385		0.00214061
F		2.87017945		1.99024463		-0.08042701		-0.00719841		0.00808974		0.01127423
F		1.13097819		3.08521435		-2.24523369		0.0012527		-0.00078672		-0.01485379
F		1.65139242		3.85042357		0.63511877		0.00267675		-0.01340083		0.00718151
F		3.96332532		3.06337771		2.38818312		0.0094319		0.00129288		0.00653462
F		0.13548612		1.75250233		0.17473958		0.00936497		0.00886865		-0.02383489
12
Lattice="0.0 0.0 0.0 0.0 0.0 0.0 0.0 0.0 0.0" Properties=species:S:1:pos:R:3:forces:R:3 energy=-44220.69010097 pbc="F F F"
Al		-0.10488401		1.62029454		2.17701920		0.03258412		0.00034343		0.01169637
Al		2.50822002		2.59340616		1.78586788		-0.01766827		-0.00111757		-0.03845604
Al		1.35445715		2.67006813		-0.67429170		0.00101644		-0.01104272		0.02811275
F		1.06298933		2.93730068		2.84855838		0.00217955		-0.00304941		-0.00199173
F		-1.41850936		2.64469793		2.03875641		-0.00721088		0.00842574		0.00013661
F		-0.48503817		0.16758556		2.88528159		-0.00314334		-0.01474198		0.00334836
F		1.77414940		0.98284984		1.87909086		-0.01702587		0.02265206		-0.0013721
F		2.86854142		1.98689536		-0.08021628		-0.01082699		0.01050472		0.01571632
F		1.13054566		3.08377120		-2.24607596		-0.0001235		-0.00247432		-0.01104544
F		1.65581549		3.85296173		0.63216952		0.00444272		-0.0200272		0.01253498
F		3.96375828		3.06449284		2.38721647		0.00730015		0.00059548		0.00710908
F		0.13640380		1.75595003		0.17854962		0.00847588		0.00993176		-0.02578917
12
Lattice="0.0 0.0 0.0 0.0 0.0 0.0 0.0 0.0 0.0" Properties=species:S:1:pos:R:3:forces:R:3 energy=-44220.69010118 pbc="F F F"
Al		-0.10589716		1.61951044		2.17745941		-0.03375659		-0.03884039		0.03957561
Al		2.50667351		2.59320880		1.78664328		0.05610673		0.02196591		-0.05559529
Al		1.35563402		2.67324088		-0.67398766		0.00077044		0.00684247		-0.04689814
F		1.06079732		2.94344305		2.83996547		-0.02668808		0.0031667		0.02155833
F		-1.42407604		2.64345215		2.05039802		0.0424374		-0.0339992		0.00352166
F		-0.48667427		0.15682725		2.87230708		0.01668785		0.06636311		-0.02959735
F		1.77795563		0.98278831		1.88961681		-0.03020827		0.00552074		-0.00124455
F		2.86284041		1.97931146		-0.07945105		0.00330979		0.01507603		0.02750059
F		1.13180451		3.08110169		-2.24915920		0.0010166		-0.01679691		0.0449491
F		1.66318870		3.85821716		0.62637650		0.01326697		-0.02201001		0.0247796
F		3.96425079		3.06608358		2.38502509		-0.02561381		-0.00864014		-0.00523326
F		0.13995158		1.76308923		0.18673224		-0.01732904		0.0013517		-0.0233163
12
Lattice="0.0 0.0 0.0 0.0 0.0 0.0 0.0 0.0 0.0" Properties=species:S:1:pos:R:3:forces:R:3 energy=-44220.69010111 pbc="F F F"
Al		-0.10647204		1.61908330		2.17786593		-0.07025106		-0.05612283		0.05471015
Al		2.50567736		2.59344731		1.78616617		0.10704344		0.0427368		-0.05185339
Al		1.35687679		2.67499795		-0.67310496		-0.00799186		0.02117818		-0.10755934
F		1.05950690		2.94799490		2.83340205		-0.04841521		0.01275316		0.04115165
F		-1.42772894		2.64229587		2.06082493		0.06730837		-0.05657219		0.00456035
F		-0.48724981		0.14861749		2.86023346		0.02570073		0.10812137		-0.04369321
F		1.77989306		0.98411466		1.89670643		-0.03675609		-0.02303434		-0.00531153
F		2.85907794		1.97431252		-0.07827703		0.02173172		0.01197213		0.03403193
F		1.13277217		3.07662422		-2.25079360		0.00232216		-0.02257013		0.07417848
F		1.66867830		3.86170128		0.62225417		0.01957261		-0.01359933		0.03190758
F		3.96402451		3.06695999		2.38405960		-0.042485		-0.0133766		-0.01351494
F		0.14139277		1.77012451		0.19258887		-0.03777982		-0.01148622		-0.01860775
12
Lattice="0.0 0.0 0.0 0.0 0.0 0.0 0.0 0.0 0.0" Properties=species:S:1:pos:R:3:forces:R:3 energy=-44222.02292640 pbc="F F F"
Al		-0.10888388		1.61959966		2.17821913		-0.02496819		-0.02289013		0.04300727
Al		2.50706343		2.59717056		1.78354479		0.09151202		0.04900872		-0.0147031
Al		1.36252903		2.67771756		-0.67090801		-0.02815607		0.01189402		-0.10331991
F		1.05349687		2.96508346		2.81386557		-0.0505957		0.01732347		0.05107929
F		-1.43929901		2.63145167		2.10816569		0.01895053		-0.01429469		-0.01181295
F		-0.48747225		0.12648872		2.80528560		0.0086316		0.04128651		0.00308637
F		1.78190701		0.99115254		1.91353433		-0.02518647		-0.062682		-0.01279958
F		2.85288268		1.96145082		-0.07001326		0.05318192		-0.00503257		0.0158769
F		1.13220043		3.04846480		-2.25330240		0.00063876		0.00052357		0.02577475
F		1.69159372		3.87223364		0.60849214		0.019642		0.01853625		0.03330146
F		3.96331954		3.06954652		2.38511191		-0.01442906		-0.00373637		-0.00720979
F		0.13711142		1.79991408		0.20993052		-0.04922133		-0.02993678		-0.0222807
12
Lattice="0.0 0.0 0.0 0.0 0.0 0.0 0.0 0.0 0.0" Properties=species:S:1:pos:R:3:forces:R:3 energy=-44221.99831718 pbc="F F F"
Al		-0.11050199		1.61994486		2.17802482		0.0128233		-0.00099022		0.03977723
Al		2.50909779		2.59951869		1.78202148		0.03423698		0.03338838		0.00847934
Al		1.36543080		2.67851838		-0.67026052		-0.03555679		-0.00387355		-0.05304988
F		1.05024536		2.97312444		2.80529335		-0.0351812		0.01294997		0.0381327
F		-1.44522717		2.62509202		2.13203952		-0.01151091		0.01402164		-0.01927721
F		-0.48787454		0.11695712		2.77822975		-0.00106631		-0.00231262		0.025792
F		1.78206941		0.99456275		1.92043503		-0.01157212		-0.06149448		-0.01778065
F		2.85195474		1.95634999		-0.06580662		0.04950621		-0.00947628		0.00183158
F		1.13089194		3.03352931		-2.25400418		-0.00113129		0.0157235		-0.01812618
F		1.70378208		3.87758808		0.60186865		0.01412352		0.02073868		0.02619607
F		3.96330361		3.07077818		2.38638207		0.01770676		0.00648179		0.00370014
F		0.13327696		1.81431017		0.21770266		-0.03237815		-0.0251568		-0.03567514
12
Lattice="0.0 0.0 0.0 0.0 0.0 0.0 0.0 0.0 0.0" Properties=species:S:1:pos:R:3:forces:R:3 energy=-44221.97985887 pbc="F F F"
Al		-0.11080930		1.62022365		2.17812668		0.01194713		0.0103218		0.03658288
Al		2.51117150		2.60073470		1.78364915		-0.03082492		0.01750907		-0.01109964
Al		1.36581962		2.67814180		-0.67158438		-0.0097973		-0.01971509		0.04895779
F		1.04591296		2.98099619		2.80080343		0.01456735		-0.03914092		0.00089086
F		-1.44935513		2.62020879		2.14778015		-0.02236833		0.02692038		-0.0225977
F		-0.48864102		0.11131620		2.76165255		-0.00097975		-0.02351018		0.03819395
F		1.78200458		0.99399800		1.92151843		-0.007345		0.00666539		0.00469518
F		2.85341319		1.95680916		-0.06203737		0.02755574		-0.03420862		-0.02671088
F		1.12854432		3.02368318		-2.25585339		-0.00437595		0.02310272		-0.04873881
F		1.71558567		3.88020838		0.59672480		-0.02297974		0.02406453		0.02394873
F		3.96450377		3.07151468		2.38846619		0.03597607		0.0099109		0.01911399
F		0.12829885		1.82243928		0.22267975		0.00862471		-0.00192		-0.06323635
12
Lattice="0.0 0.0 0.0 0.0 0.0 0.0 0.0 0.0 0.0" Properties=species:S:1:pos:R:3:forces:R:3 energy=-44221.98006616 pbc="F F F"
Al		-0.11434351		1.61941906		2.17733468		0.00689107		0.02419136		0.06485198
Al		2.51775453		2.60428724		1.78101668		-0.12568515		-0.04032841		0.06150404
Al		1.36784189		2.67826847		-0.67206931		-0.0137291		-0.03407969		0.11247417
F		1.04426603		2.98343080		2.79699357		0.04429153		-0.0409328		-0.03574651
F		-1.45710282		2.61768923		2.16047941		0.026383		-0.00430045		-0.02610782
F		-0.49178851		0.10404100		2.74942781		0.00916762		0.01602285		0.02152327
F		1.78108220		0.99578634		1.92564259		0.02965621		0.05787205		-0.02235711
F		2.85834885		1.95150796		-0.06095288		-0.0647958		0.03881362		-0.03174021
F		1.12555246		3.01639262		-2.25836949		0.00889646		0.01691194		-0.00853336
F		1.72216774		3.88722236		0.59513867		-0.00851304		-0.07591065		-0.03653345
F		3.97010994		3.07448172		2.39143332		0.0067765		0.00055929		0.00016192
F		0.12256020		1.82774720		0.22585094		0.08066071		0.04118087		-0.09949692
12
Lattice="0.0 0.0 0.0 0.0 0.0 0.0 0.0 0.0 0.0" Properties=species:S:1:pos:R:3:forces:R:3 energy=-44221.98016728 pbc="F F F"
Al		-0.11590608		1.61851893		2.17714128		-0.15958086		-0.01915386		0.12978867
Al		2.52477926		2.60694842		1.78476475		-0.11515368		-0.06158873		0.09209421
Al		1.36503089		2.67677640		-0.67584995		0.04203358		-0.01793589		0.14311351
F		1.03930666		2.98957053		2.79694717		0.12866726		-0.12789756		-0.11655571
F		-1.46700761		2.61849982		2.16858752		0.18587038		-0.12017126		-0.02449371
F		-0.49576936		0.09400521		2.74393938		0.05478713		0.19105183		-0.04057448
F		1.78129426		0.99136097		1.92508571		0.04247692		0.22799832		-0.00469775
F		2.86538814		1.95261117		-0.05857445		-0.19436588		0.07535048		-0.0640256
F		1.12037442		3.01299946		-2.26856372		0.0372865		-0.02715398		0.18399347
F		1.73420376		3.89237297		0.59265124		-0.05751315		-0.17672765		-0.08398013
F		3.98231695		3.07849856		2.39775142		-0.15976947		-0.05571889		-0.05799429
F		0.11243770		1.82811154		0.22804566		0.19526125		0.11194718		-0.15666819
12
Lattice="0.0 0.0 0.0 0.0 0.0 0.0 0.0 0.0 0.0" Properties=species:S:1:pos:R:3:forces:R:3 energy=-44221.98018547 pbc="F F F"
Al		-0.12472088		1.61353730		2.17879047		1.22142181		0.58964421		-0.42953663
Al		2.53599239		2.61409085		1.78513838		-1.93496106		-0.5585133		-0.74921529
Al		1.37101131		2.68226691		-0.68379614		0.16632954		-0.50190596		2.09521039
F		1.04832333		2.97118618		2.77992904		-0.05566979		0.27481765		0.18290215
F		-1.44196708		2.58701618		2.17973377		-0.81829762		0.64942209		-0.0365966
F		-0.49825332		0.13047843		2.72722169		-0.20570956		-1.11534938		0.42094584
F		1.77900689		1.02467590		1.91972562		0.09594168		-0.41462433		0.01284919
F		2.84008965		1.95342597		-0.05109764		0.28606758		-0.14886981		-0.17305055
F		1.13055852		3.00005371		-2.21923305		-0.27585553		0.42153174		-1.92324296
F		1.73213942		3.87323072		0.58464147		-0.02245671		0.29459777		0.07227277
F		3.94223619		3.06743483		2.38092178		1.6044591		0.5190833		0.67075829
F		0.13203259		1.84287701		0.22995062		-0.06126944		-0.00983399		-0.14329661
12
Lattice="0.0 0.0 0.0 0.0 0.0 0.0 0.0 0.0 0.0" Properties=species:S:1:pos:R:3:forces:R:3 energy=-44221.98018240 pbc="F F F"
Al		-0.12549412		1.62095379		2.17030804		-1.59428586		-0.61313777		0.80527403
Al		2.57021137		2.61919950		1.79524275		0.79379784		0.02886737		0.80985119
Al		1.34524585		2.66644165		-0.68775764		0.15656021		0.32105378		-0.82087883
F		1.02248575		3.02367071		2.80743896		0.4611247		-0.67795036		-0.5942116
F		-1.55265807		2.66168760		2.17813232		1.61672075		-1.17545438		-0.00161935
F		-0.49719398		0.00455475		2.74553926		0.34664134		1.91632051		-0.62596395
F		1.78587994		0.94931596		1.94206503		0.10527133		1.32994411		-0.07513947
F		2.91226056		1.91529098		-0.06065009		-1.17350311		0.74210466		-0.01454257
F		1.09144375		3.02718119		-2.36366308		0.35077637		-0.4913607		2.26561399
F		1.76495939		3.94078383		0.60522215		-0.05027907		-1.21950644		-0.54782517
F		4.09336069		3.11780092		2.45510266		-1.9419074		-0.65220115		-0.83452541
F		0.03594788		1.81339313		0.22494564		0.92908292		0.49132037		-0.36603285
12
Lattice="0.0 0.0 0.0 0.0 0.0 0.0 0.0 0.0 0.0" Properties=species:S:1:pos:R:3:forces:R:3 energy=-44228.20666987 pbc="F F F"
Al		-0.09728889		1.61860318		2.18259978		0.0005837		-0.00013394		-0.00037187
Al		2.50575868		2.59865690		1.78277935		0.00085236		0.00075266		0.00081215
Al		1.34891577		2.66487794		-0.67513430		-0.00074641		-0.00020764		-0.00076574
F		1.07332023		2.93111288		2.86513720		-0.0001219		-0.00015189		-0.00013205
F		-1.40143455		2.65373746		2.03272596		-0.00010576		-7.493e-05		4.8e-07
F		-0.48740295		0.17023896		2.89535914		2.17e-06		0.000119		9.356e-05
F		1.76201494		0.98796308		1.86499338		-0.00056162		-0.00057554		0.00015315
F		2.87103817		1.99952584		-0.07613300		0.00034596		-0.00011163		-0.00027573
F		1.14358392		3.08224075		-2.24901050		0.00025156		-7.991e-05		0.00024944
F		1.63508605		3.84592503		0.63925714		-0.00016546		0.00077684		-6.43e-05
F		3.96293340		3.06185026		2.38721158		-0.00048341		-0.00044816		-0.00017829
F		0.12992423		1.74554172		0.16214027		0.0001488		0.00013515		0.00047919
12
Lattice="0.0 0.0 0.0 0.0 0.0 0.0 0.0 0.0 0.0" Properties=species:S:1:pos:R:3:forces:R:3 energy=-44222.36186766 pbc="F F F"
Al		-0.09734948		1.61867665		2.18263681		0.00169867		-0.00033454		-0.00119218
Al		2.50577733		2.59857858		1.78280966		0.00059444		0.0011677		0.00021222
Al		1.34891399		2.66479761		-0.67512238		-0.00127341		-0.00012181		-0.00067481
F		1.07336930		2.93089719		2.86529249		7.6e-06		0.00024462		-1.031e-05
F		-1.40136704		2.65390695		2.03268982		-0.00070309		0.00027822		-7.729e-05
F		-0.48739496		0.17034739		2.89543446		-0.00021438		-0.00043395		0.00033577
F		1.76207024		0.98790729		1.86482724		-0.00102037		-0.00055198		0.0002135
F		2.87109345		1.99959001		-0.07622326		0.00068167		-0.00025894		0.00021329
F		1.14370694		3.08225459		-2.24898206		9.507e-05		-6.93e-06		-9.013e-05
F		1.63491973		3.84580596		0.63934631		1.907e-05		0.00047698		0.00026726
F		3.96288230		3.06204851		2.38718639		-0.00034449		-0.00062243		-0.0001052
F		0.12982718		1.74546327		0.16203052		0.00045923		0.00016305		0.00090789
12
Lattice="0.0 0.0 0.0 0.0 0.0 0.0 0.0 0.0 0.0" Properties=species:S:1:pos:R:3:forces:R:3 energy=-44220.77854408 pbc="F F F"
Al		-0.09743748		1.61879265		2.18270663		0.00260788		-0.00117314		-0.00227159
Al		2.50581317		2.59852896		1.78285667		-0.00075487		0.00087804		-0.0015489
Al		1.34890668		2.66474101		-0.67512957		-0.00107995		-8.743e-05		0.00053283
F		1.07335085		2.93072568		2.86535719		0.00051157		0.00089552		0.00023508
F		-1.40142414		2.65403509		2.03295824		-0.00132342		0.00071273		-0.00022835
F		-0.48738127		0.17033413		2.89524388		-0.00033334		-0.00085773		0.00064192
F		1.76219360		0.98784272		1.86468904		-0.00146844		0.00022446		0.00045419
F		2.87114928		1.99964056		-0.07635737		0.00052966		-8.791e-05		0.0010506
F		1.14393167		3.08204984		-2.24903330		-0.00036742		0.00026434		-0.00086081
F		1.63481943		3.84580135		0.63935252		0.00048779		-0.00059284		0.00066198
F		3.96282936		3.06221154		2.38719616		0.0004678		-0.00043619		0.00028012
F		0.12969786		1.74557047		0.16208591		0.00072276		0.00026015		0.00105294
12
Lattice="0.0 0.0 0.0 0.0 0.0 0.0 0.0 0.0 0.0" Properties=species:S:1:pos:R:3:forces:R:3 energy=-44220.75056021 pbc="F F F"
Al		-0.09752894		1.61897959		2.18279256		0.00143647		-0.00339937		-0.00251705
Al		2.50587850		2.59854004		1.78287359		-0.00252433		5.845e-05		-0.00362434
Al		1.34888414		2.66472178		-0.67517645		0.00044563		0.00027649		0.00226554
F		1.07324206		2.93066827		2.86525844		0.0013474		0.00218798		0.00057663
F		-1.40172425		2.65409131		2.03373402		-0.00080336		0.00042915		-0.00043724
F		-0.48734991		0.17005740		2.89456765		-5.55e-06		0.00029921		0.00033625
F		1.76239227		0.98782802		1.86470603		-0.00163786		0.00129453		7.696e-05
F		2.87124844		1.99973846		-0.07652246		-0.00068521		3.617e-05		0.00207289
F		1.14422294		3.08143960		-2.24926270		-0.00102375		0.00057011		-0.0011127
F		1.63488493		3.84595074		0.63923293		0.00087634		-0.00211165		0.00077465
F		3.96279256		3.06223957		2.38731864		0.00160732		0.00013651		0.0007374
F		0.12950626		1.74601922		0.16240374		0.00096691		0.00022242		0.00085102
12
Lattice="0.0 0.0 0.0 0.0 0.0 0.0 0.0 0.0 0.0" Properties=species:S:1:pos:R:3:forces:R:3 energy=-44220.69378815 pbc="F F F"
Al		-0.09760194		1.61931462		2.18287171		-0.00314739		-0.00678121		-0.00223593
Al		2.50597822		2.59864752		1.78278900		-0.00290851		-0.00105897		-0.00379405
Al		1.34893601		2.66479103		-0.67519468		0.00238477		0.00057547		0.00295564
F		1.07295475		2.93089773		2.86484279		0.00295601		0.00320668		0.0011885
F		-1.40245588		2.65396919		2.03509544		0.00173314		-0.00107524		-0.00051779
F		-0.48714515		0.16947554		2.89322524		0.00078304		0.00313999		-0.00038225
F		1.76265623		0.98797474		1.86463193		-0.00178639		0.00195314		0.00115642
F		2.87135681		1.99976781		-0.07657865		-0.0019008		0.00078951		0.001727
F		1.14436754		3.08021157		-2.24965927		-0.00136715		0.00094624		0.00010951
F		1.63526598		3.84626774		0.63905340		0.00118465		-0.00275541		-0.00051771
F		3.96279125		3.06199331		2.38770361		0.00187608		0.00086851		0.00066584
F		0.12934519		1.74696319		0.16314548		0.00019254		0.00019128		-0.00035518
12
Lattice="0.0 0.0 0.0 0.0 0.0 0.0 0.0 0.0 0.0" Properties=species:S:1:pos:R:3:forces:R:3 energy=-44220.69040360 pbc="F F F"
Al		-0.09772980		1.61981703		2.18260932		-0.01123339		-0.01074093		0.00189952
Al		2.50616670		2.59860306		1.78251675		0.00099541		0.00047107		0.00208584
Al		1.34908347		2.66486754		-0.67513314		0.00357441		0.00262715		-0.00145573
F		1.07248174		2.93106650		2.86416588		0.00460552		0.00577307		0.00156639
F		-1.40366899		2.65365741		2.03614050		0.00655488		-0.00411575		-0.00041815
F		-0.48651695		0.16911424		2.89211967		0.00156338		0.00778177		-0.00258758
F		1.76304763		0.98826110		1.86466570		-0.00173635		-0.00132402		-0.00030495
F		2.87165574		2.00000199		-0.07670615		-0.00232447		-0.00102192		0.00029578
F		1.14385807		3.07888539		-2.25000784		-0.00066042		0.00058622		0.00455874
F		1.63610105		3.84640551		0.63900557		-0.00047152		2.805e-05		-0.00295883
F		3.96279257		3.06142215		2.38851339		-0.00035502		0.00090849		-0.00100358
F		0.12917776		1.74817206		0.16403636		-0.00051245		-0.0009732		-0.00167746
12
Lattice="0.0 0.0 0.0 0.0 0.0 0.0 0.0 0.0 0.0" Properties=species:S:1:pos:R:3:forces:R:3 energy=-44220.69011456 pbc="F F F"
Al		-0.09818497		1.62050603		2.18180858		-0.01570641		-0.01107381		0.00510402
Al		2.50648300		2.59813219		1.78222496		0.0073289		0.00351163		0.01304409
Al		1.34968532		2.66514277		-0.67474490		-0.00025653		0.00323138		-0.00882175
F		1.07147104		2.93125134		2.86289318		0.0076113		0.00581419		0.00171792
F		-1.40557487		2.65283394		2.03558854		0.00995463		-0.00592625		0.00048384
F		-0.48516285		0.16978552		2.89230978		0.00082707		0.00754857		-0.00317148
F		1.76385713		0.98839553		1.86405571		-0.00361033		-0.00647666		0.0032326
F		2.87193402		1.99968246		-0.07692932		0.00133288		-0.001579		-0.00364191
F		1.14188115		3.07833331		-2.24960001		0.00156158		0.00035543		0.00827215
F		1.63765342		3.84634207		0.63935850		-0.00200468		0.00602473		-0.0072277
F		3.96277321		3.06066691		2.38967007		-0.00449469		0.00012407		-0.003665
F		0.12963341		1.74920193		0.16529090		-0.00254372		-0.00155429		-0.00532678
12
Lattice="0.0 0.0 0.0 0.0 0.0 0.0 0.0 0.0 0.0" Properties=species:S:1:pos:R:3:forces:R:3 energy=-44220.69017857 pbc="F F F"
Al		-0.09910923		1.62098161		2.18037125		-0.00955032		-0.00750461		0.01017234
Al		2.50693188		2.59704050		1.78220726		0.00984716		0.00826761		0.02175307
Al		1.35046487		2.66546742		-0.67432347		-0.00539784		0.00383007		-0.01308056
F		1.07021175		2.93095177		2.86142542		0.00926912		0.00742463		0.00015143
F		-1.40754290		2.65168980		2.03323192		0.00723757		-0.00338025		0.0010316
F		-0.48375876		0.17156425		2.89420858		-0.00193422		0.00062578		-0.00250125
F		1.76516634		0.98796182		1.86443300		-0.00589218		-0.0122865		0.00080419
F		2.87226416		1.99910786		-0.07768303		0.004989		-0.0055452		-0.00452161
F		1.13887102		3.07954356		-2.24839476		0.00370636		-6.486e-05		0.00711769
F		1.63987890		3.84602882		0.63962736		-0.00510864		0.01202447		-0.00790288
F		3.96269379		3.06036332		2.39050674		-0.00606277		-0.00090425		-0.0050374
F		0.13037717		1.74957328		0.16631574		-0.00110325		-0.00248688		-0.00798661
12