------------------------------------------------------------
          Invoking FHI-aims ...

          When using FHI-aims, please cite the following reference:

            Volker Blum, Ralf Gehrke, Felix Hanke, Paula Havu,
            Ville Havu, Xinguo Ren, Karsten Reuter, and Matthias Scheffler,
            'Ab Initio Molecular Simulations with Numeric Atom-Centered Orbitals',
            Computer Physics Communications 180, 2175-2196 (2009)

          In addition, many other developments in FHI-aims are likely important for
          your particular application. A partial list of references is given at the end of
          this file. Thank you for giving credit to the authors of these developments.

          For any questions about FHI-aims, please visit our slack channel at

            https://fhi-aims.slack.com

          and our main development and support site at

            https://aims-git.rz-berlin.mpg.de .

          The latter site, in particular, has a wiki to collect information, as well
          as an issue tracker to log discussions, suggest improvements, and report issues
          or bugs. https://aims-git.rz-berlin.mpg.de is also the main development site
          of the project and all new and updated code versions can be obtained there.
          Please send an email to aims-coordinators@fhi-berlin.mpg.de and we will add
          you to these sites. They are for you and everyone is welcome there.

------------------------------------------------------------



  Date     :  20211214, Time     :  141545.625
  Time zero on CPU 1             :   0.551210000000000E-01  s.
  Internal wall clock time zero  :           408723345.625  s.

  FHI-aims created a unique identifier for this run for later identification
  aims_uuid : 4E637DD3-9BD7-45BF-A9DA-0C101016D6C5

  Build configuration of the current instance of FHI-aims
  -------------------------------------------------------
  FHI-aims version      : 210914
  Commit number         : GITDIR-NOTFOUND
  CMake host system     : Linux-3.10.0-693.17.1.el7.x86_64
  CMake version         : 3.21.1
  Fortran compiler      : /shared/ucl/apps/intel/2018.Update3/impi/2018.3.222/intel64/bin/mpiifort (Intel) version 18.0.3.20180410
  Fortran compiler flags: -O3 -ip -fp-model precise
  C compiler            : /shared/ucl/apps/intel/2018.Update3/compilers_and_libraries_2018.3.222/linux/bin/intel64/icc (Intel) version 18.0.3.20180410
  C compiler flags      : -O3 -ip -fp-model precise -std=gnu99
  ELPA2 kernel          : AVX2
  Using MPI
  Using ScaLAPACK
  Using LibXC
  Using i-PI
  Using RLSY
  Linking against: /shared/ucl/apps/intel/2019.Update5/compilers_and_libraries_2019.5.281/linux/mkl/lib/intel64/libmkl_intel_lp64.so
                   /shared/ucl/apps/intel/2019.Update5/compilers_and_libraries_2019.5.281/linux/mkl/lib/intel64/libmkl_sequential.so
                   /shared/ucl/apps/intel/2019.Update5/compilers_and_libraries_2019.5.281/linux/mkl/lib/intel64/libmkl_core.so
                   /shared/ucl/apps/intel/2019.Update5/compilers_and_libraries_2019.5.281/linux/mkl/lib/intel64/libmkl_blacs_intelmpi_lp64.so
                   /shared/ucl/apps/intel/2019.Update5/compilers_and_libraries_2019.5.281/linux/mkl/lib/intel64/libmkl_scalapack_lp64.so

  Using       24 parallel tasks.
  Task        0 on host node-k98e-011 reporting.
  Task        1 on host node-k98e-011 reporting.
  Task        2 on host node-k98e-011 reporting.
  Task        3 on host node-k98e-011 reporting.
  Task        4 on host node-k98e-011 reporting.
  Task        5 on host node-k98e-011 reporting.
  Task        6 on host node-k98e-011 reporting.
  Task        7 on host node-k98e-011 reporting.
  Task        8 on host node-k98e-011 reporting.
  Task        9 on host node-k98e-011 reporting.
  Task       10 on host node-k98e-011 reporting.
  Task       11 on host node-k98e-011 reporting.
  Task       12 on host node-k98e-011 reporting.
  Task       13 on host node-k98e-011 reporting.
  Task       14 on host node-k98e-011 reporting.
  Task       15 on host node-k98e-011 reporting.
  Task       16 on host node-k98e-011 reporting.
  Task       17 on host node-k98e-011 reporting.
  Task       18 on host node-k98e-011 reporting.
  Task       19 on host node-k98e-011 reporting.
  Task       20 on host node-k98e-011 reporting.
  Task       21 on host node-k98e-011 reporting.
  Task       22 on host node-k98e-011 reporting.
  Task       23 on host node-k98e-011 reporting.

  Performing system and environment tests:
  | Environment variable OMP_NUM_THREADS correctly set to 1.
  | Checking for ScaLAPACK...
  | Testing pdtran()...
  | All pdtran() tests passed.

  Obtaining array dimensions for all initial allocations:
  
  -----------------------------------------------------------------------
  Parsing control.in (first pass over file, find array dimensions only).
  The contents of control.in will be repeated verbatim below
  unless switched off by setting 'verbatim_writeout .false.' .
  in the first line of control.in .
  -----------------------------------------------------------------------
  
  #########################################################################################  Physical model
  #########################################################################################
  xc                 pbesol
  spin               none
  relativistic       atomic_zora scalar
  charge             0.0
  #  SCF convergence
  occupation_type    gaussian 0.01
  mixer              pulay
  n_max_pulay        10
  charge_mix_param   0.5
  sc_accuracy_rho    1E-5
  sc_accuracy_eev    1E-3
  sc_accuracy_etot   1E-6
  sc_accuracy_forces 1E-4
  sc_iter_limit      1500
  #  Relaxation
  relax_geometry   bfgs 1.e-3
  
  ################################################################################
  #
  #  FHI-aims code project
  #  VB, Fritz-Haber Institut, 2009
  #
  #  Suggested "light" defaults for Al atom (to be pasted into control.in file)
  #  Be sure to double-check any results obtained with these settings for post-processing,
  #  e.g., with the "tight" defaults and larger basis sets.
  #
  ################################################################################
    species        Al
  #     global species definitions
      nucleus             13
      mass                26.9815386
  #
      l_hartree           4
  #
      cut_pot             3.5          1.5  1.0
      basis_dep_cutoff    1e-4
  #
      radial_base         41 5.0
      radial_multiplier   1
      angular_grids       specified
        division   0.6594  110
        division   0.8170  194
        division   0.9059  302
  #      division   1.0363  434
  #      division   1.1443  590
  #      division   1.2621  770
  #      division   2.8177  974
  #      outer_grid   974
        outer_grid   302
  ################################################################################
  #
  #  Definition of "minimal" basis
  #
  ################################################################################
  #     valence basis states
      valence      3  s   2.
      valence      3  p   1.
  #     ion occupancy
      ion_occ      3  s   1.
      ion_occ      2  p   6.
  ################################################################################
  #
  #  Suggested additional basis functions. For production calculations,
  #  uncomment them one after another (the most important basis functions are
  #  listed first).
  #
  #  Constructed for dimers: 2.0 A, 2.5 A, 3.0 A, 3.75 A, 4.5 A
  #
  ################################################################################
  #  "First tier" - improvements: -199.47 meV to -10.63 meV
       ionic 3 d auto
       ionic 3 p auto
  #     hydro 4 f 4.7
       ionic 3 s auto
  #  "Second tier" - improvements: -5.35 meV to -1.57 meV
  #     hydro 5 g 7
  #     hydro 3 d 6
  #     hydro 2 s 11.6
  #     hydro 2 p 0.9
  #  "Third tier" - improvements: -0.63 meV to -0.20 meV
  #     hydro 5 f 7.6
  #     hydro 4 p 7.2
  #     hydro 4 s 3.7
  #     hydro 4 d 7.6
  #  "Fourth tier" - improvements: -0.17 meV to -0.08 meV
  #     hydro 4 d 13.6
  #     hydro 5 g 11.2
  #     hydro 4 d 0.9
  #     hydro 1 s 0.4
  #     hydro 4 p 0.1
  #     hydro 5 f 9.8
  #  Further basis functions that fell out of the optimization - noise level...
  #     hydro 4 p 5
  
  ################################################################################
  #
  #  FHI-aims code project
  #  VB, Fritz-Haber Institut, 2009
  #
  #  Suggested "light" defaults for F atom (to be pasted into control.in file)
  #  Be sure to double-check any results obtained with these settings for post-processing,
  #  e.g., with the "tight" defaults and larger basis sets.
  #
  ################################################################################
    species        F
  #     global species definitions
      nucleus             9
      mass                18.9984032
  #
      l_hartree           4
  #
      cut_pot             3.5  1.5  1.0
      basis_dep_cutoff    1e-4
  #
      radial_base         37 5.0
      radial_multiplier   1
      angular_grids specified
        division   0.4014  110
        division   0.5291  194
        division   0.6019  302
  #      division   0.6814  434
  #      division   0.7989  590
  #      division   0.8965  770
  #      division   1.3427  974
  #      outer_grid   974
        outer_grid   302
  ################################################################################
  #
  #  Definition of "minimal" basis
  #
  ################################################################################
  #     valence basis states
      valence      2  s   2.
      valence      2  p   5.
  #     ion occupancy
      ion_occ      2  s   1.
      ion_occ      2  p   4.
  ################################################################################
  #
  #  Suggested additional basis functions. For production calculations,
  #  uncomment them one after another (the most important basis functions are
  #  listed first).
  #
  #  Constructed for dimers: 1.2 A, 1.418 A, 1.75 A, 2.25 A, 3.25 A
  #
  ################################################################################
  #  "First tier" - improvements: -149.44 meV to -45.88 meV
       hydro 2 p 1.7
       hydro 3 d 7.4
       hydro 3 s 6.8
  #  "Second tier" - improvements: -12.96 meV to -1.56 meV
  #     hydro 4 f 11.2
  #     ionic 2 p auto
  #     hydro 1 s 0.75
  #     hydro 4 d 8.8
  #     hydro 5 g 16.8
  #  "Third tier" - improvements: -0.58 meV to -0.05 meV
  #     hydro 3 p 6.2
  #     hydro 3 s 3.2
  #     hydro 4 f 9.6
  #     hydro 3 s 19.6
  #     hydro 4 d 8.6
  #     hydro 5 g 14.4
  # Further basis functions: -0.05 meV and below
  #     hydro 3 p 4.2
  
  -----------------------------------------------------------------------
  Completed first pass over input file control.in .
  -----------------------------------------------------------------------
  
  
  -----------------------------------------------------------------------
  Parsing geometry.in (first pass over file, find array dimensions only).
  The contents of geometry.in will be repeated verbatim below
  unless switched off by setting 'verbatim_writeout .false.' .
  in the first line of geometry.in .
  -----------------------------------------------------------------------
  
  #src_path:/scratch/scratch/uccatka/work/AlF3/clusters/rq/n3/n3_rq/ranked/004//scratch/scratch/uccatka/work/AlF3/clusters/rq/n3/n3_rq
  atom      -0.077521    1.639982    2.155742   Al
  atom       2.525360    2.607137    1.765722   Al
  atom       1.357882    2.664063   -0.646820   Al
  atom       1.001281    3.092532    2.835815    F
  atom      -1.578260    2.683496    2.177066    F
  atom      -0.492122   -0.027299    2.753361    F
  atom       1.809971    0.868077    1.934187    F
  atom       2.964965    1.857056   -0.072842    F
  atom       1.086689    3.034297   -2.395313    F
  atom       1.747123    4.014805    0.633178    F
  atom       4.110830    3.125966    2.459403    F
  atom      -0.009749    1.800162    0.212427    F
  
  -----------------------------------------------------------------------
  Completed first pass over input file geometry.in .
  -----------------------------------------------------------------------
  

  Basic array size parameters:
  | Number of species                 :        2
  | Number of atoms                   :       12
  | Max. basis fn. angular momentum   :        2
  | Max. atomic/ionic basis occupied n:        3
  | Max. number of basis fn. types    :        3
  | Max. radial fns per species/type  :        5
  | Max. logarithmic grid size        :     1340
  | Max. radial integration grid size :       41
  | Max. angular integration grid size:      302
  | Max. angular grid division number :        8
  | Radial grid for Hartree potential :     1340
  | Number of spin channels           :        1

------------------------------------------------------------
          Reading file control.in.
------------------------------------------------------------
  XC: Using PBEsol gradient-corrected functionals.
  Spin treatment: No spin polarisation.
  Scalar relativistic treatment of kinetic energy: on-site free-atom approximation to ZORA.
  Charge =   0.000000E+00: Neutral system requested explicitly.
  Occupation type: Gaussian broadening, width =   0.100000E-01 eV.
  Using pulay charge density mixing.
  Pulay mixing - number of memorized iterations:   10
  Charge density mixing - mixing parameter:     0.5000
  Convergence accuracy of self-consistent charge density:  0.1000E-04
  Convergence accuracy of sum of eigenvalues:  0.1000E-02
  Convergence accuracy of total energy:  0.1000E-05
  Convergence accuracy of forces:  0.1000E-03
  Maximum number of s.-c. iterations  :  1500
  Geometry relaxation: Modified BFGS - TRM (trust radius method) for lattice optimization.
  Convergence accuracy for geometry relaxation: Maximum force <   0.100000E-02 eV/A.
 
  Reading configuration options for species Al                  .
  | Found nuclear charge :  13.0000
  | Found atomic mass :    26.9815386000000      amu
  | Found l_max for Hartree potential  :   4
  | Found cutoff potl. onset [A], width [A], scale factor :    3.50000    1.50000    1.00000
  | Threshold for basis-dependent cutoff potential is   0.100000E-03
  | Found data for basic radial integration grid :    41 points, outermost radius =    5.000 A
  | Found multiplier for basic radial grid :   1
  | Found angular grid specification: user-specified.
  | Specified grid contains     4 separate shells.
  | Check grid settings after all constraints further below.
  | Found free-atom valence shell :  3 s   2.000
  | Found free-atom valence shell :  3 p   1.000
  | Found free-ion valence shell :  3 s   1.000
  | Found free-ion valence shell :  2 p   6.000
  | Found ionic basis function :  3 d , default cutoff radius.
  | Found ionic basis function :  3 p , default cutoff radius.
  | Found ionic basis function :  3 s , default cutoff radius.
  Species Al                  : Missing cutoff potential type.
  Defaulting to exp(1/x)/(1-x)^2 type cutoff potential.
  Species Al: No 'logarithmic' tag. Using default grid for free atom:
  | Default logarithmic grid data [bohr] : 0.1000E-03 0.1000E+03 0.1012E+01
  | Will include ionic basis functions of  2.0-fold positive Al                   ion.
  Species Al: On-site basis accuracy parameter (for Gram-Schmidt orthonormalisation) not specified.
  Using default value basis_acc =  0.1000000E-03.
  Species Al                  : Using default innermost maximum threshold i_radial=  2 for radial functions.
  Species Al                  : Default cutoff onset for free atom density etc. : 0.35000000E+01 AA.
  Species Al                  : Basic radial grid will be enhanced according to radial_multiplier =   1, to contain    41 grid points.
 
  Reading configuration options for species F                   .
  | Found nuclear charge :   9.0000
  | Found atomic mass :    18.9984032000000      amu
  | Found l_max for Hartree potential  :   4
  | Found cutoff potl. onset [A], width [A], scale factor :    3.50000    1.50000    1.00000
  | Threshold for basis-dependent cutoff potential is   0.100000E-03
  | Found data for basic radial integration grid :    37 points, outermost radius =    5.000 A
  | Found multiplier for basic radial grid :   1
  | Found angular grid specification: user-specified.
  | Specified grid contains     4 separate shells.
  | Check grid settings after all constraints further below.
  | Found free-atom valence shell :  2 s   2.000
  | Found free-atom valence shell :  2 p   5.000
  | Found free-ion valence shell :  2 s   1.000
  | Found free-ion valence shell :  2 p   4.000
  | Found hydrogenic basis function :  2 p   1.700
  | Found hydrogenic basis function :  3 d   7.400
  | Found hydrogenic basis function :  3 s   6.800
  Species F                   : Missing cutoff potential type.
  Defaulting to exp(1/x)/(1-x)^2 type cutoff potential.
  Species F : No 'logarithmic' tag. Using default grid for free atom:
  | Default logarithmic grid data [bohr] : 0.1000E-03 0.1000E+03 0.1012E+01
  Species F : On-site basis accuracy parameter (for Gram-Schmidt orthonormalisation) not specified.
  Using default value basis_acc =  0.1000000E-03.
  Species F                   : Using default innermost maximum threshold i_radial=  2 for radial functions.
  Species F                   : Default cutoff onset for free atom density etc. : 0.35000000E+01 AA.
  Species F                   : Basic radial grid will be enhanced according to radial_multiplier =   1, to contain    37 grid points.
 
  Finished reading input file 'control.in'.
 
------------------------------------------------------------


------------------------------------------------------------
          Reading geometry description geometry.in.
------------------------------------------------------------
  | The smallest distance between any two atoms is         1.80667982 AA.
  | The first atom of this pair is atom number                      2 .
  | The second atom of this pair is atom number                    11 .
  Input structure read successfully.
  The structure contains       12 atoms,  and a total of        120.000 electrons.

  Input geometry:
  | No unit cell requested.
  | Atomic structure:
  |       Atom                x [A]            y [A]            z [A]
  |    1: Species Al           -0.07752100        1.63998200        2.15574200
  |    2: Species Al            2.52536000        2.60713700        1.76572200
  |    3: Species Al            1.35788200        2.66406300       -0.64682000
  |    4: Species F             1.00128100        3.09253200        2.83581500
  |    5: Species F            -1.57826000        2.68349600        2.17706600
  |    6: Species F            -0.49212200       -0.02729900        2.75336100
  |    7: Species F             1.80997100        0.86807700        1.93418700
  |    8: Species F             2.96496500        1.85705600       -0.07284200
  |    9: Species F             1.08668900        3.03429700       -2.39531300
  |   10: Species F             1.74712300        4.01480500        0.63317800
  |   11: Species F             4.11083000        3.12596600        2.45940300
  |   12: Species F            -0.00974900        1.80016200        0.21242700

 
  Finished reading input file 'control.in'.
 

------------------------------------------------------------
          Reading geometry description geometry.in.
------------------------------------------------------------
 
  Consistency checks for stacksize environment parameter are next.
 
  | Maximum stacksize for task 0: unlimited
  | Maximum stacksize for task 1: unlimited
  | Maximum stacksize for task 2: unlimited
  | Maximum stacksize for task 3: unlimited
  | Maximum stacksize for task 4: unlimited
  | Maximum stacksize for task 5: unlimited
  | Maximum stacksize for task 6: unlimited
  | Maximum stacksize for task 7: unlimited
  | Maximum stacksize for task 8: unlimited
  | Maximum stacksize for task 9: unlimited
  | Maximum stacksize for task 10: unlimited
  | Maximum stacksize for task 11: unlimited
  | Maximum stacksize for task 12: unlimited
  | Maximum stacksize for task 13: unlimited
  | Maximum stacksize for task 14: unlimited
  | Maximum stacksize for task 15: unlimited
  | Maximum stacksize for task 16: unlimited
  | Maximum stacksize for task 17: unlimited
  | Maximum stacksize for task 18: unlimited
  | Maximum stacksize for task 19: unlimited
  | Maximum stacksize for task 20: unlimited
  | Maximum stacksize for task 21: unlimited
  | Maximum stacksize for task 22: unlimited
  | Maximum stacksize for task 23: unlimited
  | Current stacksize for task 0: unlimited
  | Current stacksize for task 1: unlimited
  | Current stacksize for task 2: unlimited
  | Current stacksize for task 3: unlimited
  | Current stacksize for task 4: unlimited
  | Current stacksize for task 5: unlimited
  | Current stacksize for task 6: unlimited
  | Current stacksize for task 7: unlimited
  | Current stacksize for task 8: unlimited
  | Current stacksize for task 9: unlimited
  | Current stacksize for task 10: unlimited
  | Current stacksize for task 11: unlimited
  | Current stacksize for task 12: unlimited
  | Current stacksize for task 13: unlimited
  | Current stacksize for task 14: unlimited
  | Current stacksize for task 15: unlimited
  | Current stacksize for task 16: unlimited
  | Current stacksize for task 17: unlimited
  | Current stacksize for task 18: unlimited
  | Current stacksize for task 19: unlimited
  | Current stacksize for task 20: unlimited
  | Current stacksize for task 21: unlimited
  | Current stacksize for task 22: unlimited
  | Current stacksize for task 23: unlimited
 
  Consistency checks for the contents of control.in are next.
 
  MPI_IN_PLACE appears to work with this MPI implementation.
  | Keeping use_mpi_in_place .true. (see manual).
  Target number of points in a grid batch is not set. Defaulting to  100
  Method for grid partitioning is not set. Defaulting to parallel hash+maxmin partitioning.
  Batch size limit is not set. Defaulting to    200
  By default, will store active basis functions for each batch.
  If in need of memory, prune_basis_once .false. can be used to disable this option.
  communication_type for Hartree potential was not specified.
  Defaulting to calc_hartree .
  Pulay mixer: Number of initial linear mixing iterations not set.
  Defaulting to    0 iterations.
  Work space size for distributed Hartree potential not set.
  Defaulting to   0.200000E+03 MB.
  Algorithm-dependent basis array size parameters:
  | n_max_pulay                         :       10
  Presetting      1001 iterations before the initial mixing cycle
  is restarted anyway using the sc_init_iter criterion / keyword.
  Presetting a factor      1.000 between actual scf density residual
  and density convergence criterion sc_accuracy_rho below which sc_init_iter
  takes no effect.
  No maximum number of relaxation steps, defaulting to     1000
  Default initial Hessian is Lindh matrix (thres = 15.00) plus  0.200000E+01 eV/A^2 times unity.
  No maximum energy tolerance for TRM/BFGS moves, defaulting to   0.100000E-02
  Maximum energy tolerance by which TRM/BFGS trajectory may increase over multiple steps:   0.300000E-02
  No harmonic length scale. Defaulting to   0.250000E-01 A.
  No trust radius initializer. Defaulting to   0.200000E+00 A.
  Forces evaluation will include force correction term due to incomplete self-consistency (default).
  Handling of forces: Unphysical translation and rotation will be removed from forces.
  No accuracy limit for integral partition fn. given. Defaulting to  0.1000E-14.
  No threshold value for u(r) in integrations given. Defaulting to  0.1000E-05.
  No accuracy for occupation numbers given. Defaulting to  0.1000E-12.
  No threshold value for occupation numbers given. Defaulting to  0.0000E+00.
  No accuracy for fermi level given. Defaulting to  0.1000E-19.
  Maximum # of iterations to find E_F not set. Defaulting to  200.
  Preferred method for the eigenvalue solver ('KS_method') not specified in 'control.in'.
  Calling BLACS routine to test compilation state
  Since ScaLAPACK support is enabled, defaulting to ELPA (via ELSI).
  Will not use alltoall communication since running on < 1024 CPUs.
  Threshold for basis singularities not set.
  Default threshold for basis singularities:  0.1000E-04
  partition_type (choice of integration weights) for integrals was not specified.
  | Using a version of the partition function of Stratmann and coworkers ('stratmann_sparse').
  | At each grid point, the set of atoms used to build the partition table is smoothly restricted to
  | only those atoms whose free-atom density would be non-zero at that grid point.
  Partitioning for Hartree potential was not defined. Using partition_type for integrals.
  | Adjusted default value of keyword multip_moments_threshold to:       0.10000000E-11
  | This value may affect high angular momentum components of the Hartree potential in periodic systems.
  No q(lm)/r^(l+1) cutoff set for long-range Hartree potential.
  | Using default value of  0.100000E-09 .
  | Verify using the multipole_threshold keyword.
  Defaulting to new monopole extrapolation.
  Density update method: automatic selection selected.
  Geometry relaxation: A file "geometry.in.next_step" is written out by default after each step.
  | This file contains the geometry of the current relaxation step as well as
  | the current Hessian matrix needed to restart the relaxation algorithm.
  | If you do not want part or all of this information, use the keywords
  | "write_restart_geometry" or "hessian_to_restart_geometry" to switch the output off.
  Charge integration errors on the 3D integration grid will be compensated
  by explicit normalization and distribution of residual charges.
  Use the "compensate_multipole_errors" flag to change this behaviour.
  Set 'collect_eigenvectors' to be '.true.' for use_density_matrix .false.
 
  Consistency checks for the contents of geometry.in are next.
 
  Number of empty states per atom not set in control.in - providing a guess from actual geometry.
  | Total number of empty states used during s.c.f. cycle:       36
  If you use a very high smearing, use empty_states (per atom!) in control.in to increase this value.

  Structure-dependent array size parameters: 
  | Maximum number of distinct radial functions  :       14
  | Maximum number of basis functions            :      180
  | Number of Kohn-Sham states (occupied + empty):       96
------------------------------------------------------------

------------------------------------------------------------
          Preparing all fixed parts of the calculation.
------------------------------------------------------------
  Determining machine precision:
    2.225073858507201E-308
  Setting up grids for atomic and cluster calculations.

  Creating wave function, potential, and density for free atoms.

  Species: Al

  List of occupied orbitals and eigenvalues:
    n    l              occ      energy [Ha]    energy [eV]
    1    0           2.0000       -55.621123     -1513.5278
    2    0           2.0000        -3.957030      -107.6763
    3    0           2.0000        -0.272233        -7.4078
    2    1           6.0000        -2.540949       -69.1427
    3    1           1.0000        -0.083300        -2.2667


  Species: F

  List of occupied orbitals and eigenvalues:
    n    l              occ      energy [Ha]    energy [eV]
    1    0           2.0000       -24.399611      -663.9472
    2    0           2.0000        -1.098702       -29.8972
    2    1           5.0000        -0.408210       -11.1080


  Adding cutoff potential to free-atom effective potential.
  Creating fixed part of basis set: Ionic, confined, hydrogenic.
 
  Al                   ion:

  List of free ionic orbitals and eigenvalues:
    n    l      energy [Ha]    energy [eV]
    1    0       -56.418846     -1535.2349
    2    0        -4.732717      -128.7838
    3    0        -0.872690       -23.7471
    2    1        -3.317230       -90.2664


  List of ionic basis orbitals and eigenvalues:
    n    l      energy [Ha]    energy [eV]    outer radius [A]
    3    2        -0.346815        -9.4373       4.594041
    3    1        -0.631870       -17.1940       4.538221
    3    0        -0.872657       -23.7462       4.538221

 
  F                    hydrogenic:
 
  List of hydrogenic basis orbitals: 
    n    l      effective z      eigenvalue [eV]  inner max. [A]     outer max. [A]     outer radius [A]   
    2    1         1.700000        -9.7616           1.243167           1.243167           4.598524
    3    2         7.400000       -82.7828           0.642437           0.642437           3.305741
    3    0         6.800000       -69.9026           0.057798           1.022307           3.781556
 
  Creating atomic-like basis functions for current effective potential.

  Species Al                  :

  List of atomic basis orbitals and eigenvalues:
    n    l      energy [Ha]    energy [eV]    outer radius [A]
    1    0       -55.621123     -1513.5278       0.850197
    2    0        -3.957030      -107.6763       3.144911
    3    0        -0.272233        -7.4078       4.594041
    2    1        -2.540949       -69.1427       3.731966
    3    1        -0.083300        -2.2667       4.594041


  Species F                   :

  List of atomic basis orbitals and eigenvalues:
    n    l      energy [Ha]    energy [eV]    outer radius [A]
    1    0       -24.399611      -663.9472       1.258458
    2    0        -1.098702       -29.8972       4.325857
    2    1        -0.408210       -11.1080       4.487453

  Assembling full basis from fixed parts.
  | Species Al :   atomic orbital   1 s accepted.
  | Species Al :   atomic orbital   2 s accepted.
  | Species Al :    ionic orbital   3 s accepted.
  | Species Al :   atomic orbital   3 s accepted.
  | Species Al :   atomic orbital   2 p accepted.
  | Species Al :    ionic orbital   3 p accepted.
  | Species Al :   atomic orbital   3 p accepted.
  | Species Al :    ionic orbital   3 d accepted.
  | Species F :   atomic orbital   1 s accepted.
  | Species F :    hydro orbital   3 s accepted.
  | Species F :   atomic orbital   2 s accepted.
  | Species F :   atomic orbital   2 p accepted.
  | Species F :    hydro orbital   2 p accepted.
  | Species F :    hydro orbital   3 d accepted.
 
  Basis size parameters after reduction:
  | Total number of radial functions:       14
  | Total number of basis functions :      180
 
  Per-task memory consumption for arrays in subroutine allocate_ext:
  |           4.807768MB.
  Testing on-site integration grid accuracy.
  |  Species  Function  <phi|h_atom|phi> (log., in eV)  <phi|h_atom|phi> (rad., in eV)
           1        1              -1513.5277717935              -1513.5271881332
           1        2               -107.6762691836               -107.6762662489
           1        3                 -6.9467474784                 -6.9471269649
           1        4                  5.5771951849                  5.4862107220 ***
           1        5                -69.1427313144                -69.1427312731
           1        6                 -1.5197375330                 -1.5230432022
           1        7                  6.8210948310                  6.5529872240 ***
           1        8                  4.3216540965                  4.2851170187 ***
           2        9               -663.9471986398               -663.9470363334
           2       10                 16.8514011578                 16.8512525338
           2       11                -28.4490593856                -28.4490661472
           2       12                -11.1080115307                -11.1080620173
           2       13                  7.1940182175                  7.1685154137
           2       14                 44.8544281765                 44.8543763625
 * Note: Onsite integrals marked "***" above are less accurate than
 * onsite_accuracy_threshold =    0.03000 eV. Usually, this is harmless.
 * When in doubt, tighten the "radial" and/or "radial_multiplier" flags to check.

  Preparing densities etc. for the partition functions (integrals / Hartree potential).

  Preparations completed.
  max(cpu_time)          :      0.184 s.
  Wall clock time (cpu1) :      0.187 s.
------------------------------------------------------------

------------------------------------------------------------
          Begin self-consistency loop: Initialization.

          Date     :  20211214, Time     :  141545.862
------------------------------------------------------------

  Initializing index lists of integration centers etc. from given atomic structure:
  | Number of centers in hartree potential         :        12
  | Number of centers in hartree multipole         :        12
  | Number of centers in electron density summation:        12
  | Number of centers in basis integrals           :        12
  | Number of centers in integrals                 :        12
  | Number of centers in hamiltonian               :        12

  Initializing relaxation algorithms.
  Finished initialization of distributed Hessian storage.
  | Global dimension:        36
  | BLACS block size:         2
  | Number of workers:       18

  * Using 24 tasks for Scalapack Eigenvalue solver.
  Detailed listing of tasks and assigned k-points:
  (for non-periodic systems, the "k-point" denotes an internal label only)
   Task     0 k-point     1 on node-k98e-011
   Task     1 k-point     1 on node-k98e-011
   Task     2 k-point     1 on node-k98e-011
   Task     3 k-point     1 on node-k98e-011
   Task     4 k-point     1 on node-k98e-011
   Task     5 k-point     1 on node-k98e-011
   Task     6 k-point     1 on node-k98e-011
   Task     7 k-point     1 on node-k98e-011
   Task     8 k-point     1 on node-k98e-011
   Task     9 k-point     1 on node-k98e-011
   Task    10 k-point     1 on node-k98e-011
   Task    11 k-point     1 on node-k98e-011
   Task    12 k-point     1 on node-k98e-011
   Task    13 k-point     1 on node-k98e-011
   Task    14 k-point     1 on node-k98e-011
   Task    15 k-point     1 on node-k98e-011
   Task    16 k-point     1 on node-k98e-011
   Task    17 k-point     1 on node-k98e-011
   Task    18 k-point     1 on node-k98e-011
   Task    19 k-point     1 on node-k98e-011
   Task    20 k-point     1 on node-k98e-011
   Task    21 k-point     1 on node-k98e-011
   Task    22 k-point     1 on node-k98e-011
   Task    23 k-point     1 on node-k98e-011
  Tasks:    24 split into      6 X      4 BLACS grid
  Calculating block size based on n_basis =          180  max_nprow =            6  max_npcol =            4
  ScaLAPACK block size set to:           16
  Allocating        0.012 MB for ovlp
  Allocating        0.012 MB for ham
  Allocating        0.012 MB for eigenvec
  Required Scalapack workspace - INTEGER:            1  REAL:             1
  Partitioning the integration grid into batches with parallel hashing+maxmin method.
  | Number of batches:     1029
  | Maximal batch size:     199
  | Minimal batch size:      17
  | Average batch size:      89.329
  | Standard deviation of batch sizes:      25.288

  Integration load balanced across    24 MPI tasks.
  Work distribution over tasks is as follows:
  Task     0 has       3915 integration points.
  Task     1 has       3918 integration points.
  Task     2 has       3872 integration points.
  Task     3 has       3873 integration points.
  Task     4 has       3772 integration points.
  Task     5 has       3871 integration points.
  Task     6 has       3852 integration points.
  Task     7 has       3779 integration points.
  Task     8 has       3831 integration points.
  Task     9 has       3785 integration points.
  Task    10 has       3833 integration points.
  Task    11 has       3779 integration points.
  Task    12 has       3780 integration points.
  Task    13 has       3780 integration points.
  Task    14 has       3782 integration points.
  Task    15 has       3873 integration points.
  Task    16 has       3779 integration points.
  Task    17 has       3841 integration points.
  Task    18 has       3783 integration points.
  Task    19 has       3776 integration points.
  Task    20 has       3854 integration points.
  Task    21 has       3877 integration points.
  Task    22 has       3848 integration points.
  Task    23 has       3867 integration points.
  Initializing partition tables, free-atom densities, potentials, etc. across the integration grid (initialize_grid_storage).
  | initialize_grid_storage: Actual outermost partition radius vs. multipole_radius_free
  | (-- VB: in principle, multipole_radius_free should be larger, hence this output)
  | Species        1: Confinement radius =              4.999999999999999 AA, multipole_radius_free =              5.004487022111096 AA.
  | Species        1: outer_partition_radius set to              5.004487022111096 AA .
  | Species        2: Confinement radius =              4.999999999999999 AA, multipole_radius_free =              5.009370088163274 AA.
  | Species        2: outer_partition_radius set to              5.009370088163274 AA .
  | The sparse table of interatomic distances needs          1.64 kbyte instead of         1.15 kbyte of memory.
  | Using the partition_type stratmann_smoother will reduce your memory usage.
  | Net number of integration points:    91920
  | of which are non-zero points    :    85087
  Renormalizing the initial density to the exact electron count on the 3D integration grid.
  | Initial density: Formal number of electrons (from input files) :     120.0000000000
  | Integrated number of electrons on 3D grid     :     119.9997684016
  | Charge integration error                      :      -0.0002315984
  | Normalization factor for density and gradient :       1.0000019300
  Renormalizing the free-atom superposition density to the exact electron count on the 3D integration grid.
  | Formal number of electrons (from input files) :     120.0000000000
  | Integrated number of electrons on 3D grid     :     119.9997684016
  | Charge integration error                      :      -0.0002315984
  | Normalization factor for density and gradient :       1.0000019300
  Obtaining max. number of non-zero basis functions in each batch (get_n_compute_maxes).
  | Maximal number of non-zero basis functions:      171 in task     0
  | Maximal number of non-zero basis functions:      166 in task     1
  | Maximal number of non-zero basis functions:      173 in task     2
  | Maximal number of non-zero basis functions:      171 in task     3
  | Maximal number of non-zero basis functions:      166 in task     4
  | Maximal number of non-zero basis functions:      165 in task     5
  | Maximal number of non-zero basis functions:      170 in task     6
  | Maximal number of non-zero basis functions:      166 in task     7
  | Maximal number of non-zero basis functions:      167 in task     8
  | Maximal number of non-zero basis functions:      171 in task     9
  | Maximal number of non-zero basis functions:      163 in task    10
  | Maximal number of non-zero basis functions:      166 in task    11
  | Maximal number of non-zero basis functions:      171 in task    12
  | Maximal number of non-zero basis functions:      165 in task    13
  | Maximal number of non-zero basis functions:      170 in task    14
  | Maximal number of non-zero basis functions:      166 in task    15
  | Maximal number of non-zero basis functions:      165 in task    16
  | Maximal number of non-zero basis functions:      172 in task    17
  | Maximal number of non-zero basis functions:      172 in task    18
  | Maximal number of non-zero basis functions:      165 in task    19
  | Maximal number of non-zero basis functions:      166 in task    20
  | Maximal number of non-zero basis functions:      165 in task    21
  | Maximal number of non-zero basis functions:      164 in task    22
  | Maximal number of non-zero basis functions:      167 in task    23
  Selecting the method for density update.
  Loop over occupied states selected for charge density update.
  Allocating        0.132 MB for KS_eigenvector
  Integrating Hamiltonian matrix: batch-based integration.
  Time summed over all CPUs for integration: real work        0.758 s, elapsed        0.819 s
  Integrating overlap matrix.
  Time summed over all CPUs for integration: real work        0.288 s, elapsed        0.322 s
  Deallocating overlap matrix.

  Updating Kohn-Sham eigenvalues and eigenvectors using ELSI and the ELPA eigensolver.
  Overlap matrix is not singular
  | Lowest and highest eigenvalues :  0.3085E-02,  0.5743E+01
  Finished singularity check of overlap matrix
  | Time :     0.012 s
  Starting ELPA eigensolver
  Finished Cholesky decomposition
  | Time :     0.008 s
  Finished transformation to standard eigenproblem
  | Time :     0.001 s
  Finished solving standard eigenproblem
  | Time :     0.005 s
  Finished back-transformation of eigenvectors
  | Time :     0.000 s

  Obtaining occupation numbers and chemical potential using ELSI.
  | Chemical potential (Fermi level):    -7.33467056 eV
  Writing Kohn-Sham eigenvalues.

  State    Occupation    Eigenvalue [Ha]    Eigenvalue [eV]
      1       2.00000         -55.485996        -1509.85076
      2       2.00000         -55.484850        -1509.81959
      3       2.00000         -55.484052        -1509.79788
      4       2.00000         -24.365193         -663.01063
      5       2.00000         -24.357232         -662.79400
      6       2.00000         -24.356615         -662.77723
      7       2.00000         -24.353201         -662.68432
      8       2.00000         -24.352468         -662.66437
      9       2.00000         -24.341673         -662.37061
     10       2.00000         -24.341543         -662.36708
     11       2.00000         -24.340255         -662.33203
     12       2.00000         -24.339242         -662.30448
     13       2.00000          -3.951612         -107.52883
     14       2.00000          -3.950207         -107.49061
     15       2.00000          -3.949242         -107.46433
     16       2.00000          -2.544686          -69.24442
     17       2.00000          -2.543616          -69.21531
     18       2.00000          -2.543052          -69.19997
     19       2.00000          -2.542635          -69.18861
     20       2.00000          -2.541830          -69.16672
     21       2.00000          -2.541731          -69.16403
     22       2.00000          -2.541469          -69.15689
     23       2.00000          -2.540838          -69.13971
     24       2.00000          -2.540101          -69.11967
     25       2.00000          -1.191769          -32.42969
     26       2.00000          -1.182204          -32.16940
     27       2.00000          -1.175392          -31.98405
     28       2.00000          -1.171354          -31.87415
     29       2.00000          -1.161945          -31.61814
     30       2.00000          -1.150566          -31.30851
     31       2.00000          -1.150258          -31.30011
     32       2.00000          -1.149260          -31.27296
     33       2.00000          -1.145474          -31.16993
     34       2.00000          -0.561137          -15.26933
     35       2.00000          -0.558387          -15.19449
     36       2.00000          -0.544429          -14.81466
     37       2.00000          -0.522979          -14.23097
     38       2.00000          -0.520546          -14.16478
     39       2.00000          -0.511121          -13.90832
     40       2.00000          -0.507998          -13.82333
     41       2.00000          -0.503191          -13.69253
     42       2.00000          -0.498644          -13.56879
     43       2.00000          -0.495690          -13.48842
     44       2.00000          -0.490061          -13.33525
     45       2.00000          -0.488172          -13.28384
     46       2.00000          -0.479497          -13.04779
     47       2.00000          -0.474107          -12.90110
     48       2.00000          -0.472946          -12.86952
     49       2.00000          -0.466960          -12.70663
     50       2.00000          -0.465690          -12.67206
     51       2.00000          -0.460913          -12.54208
     52       2.00000          -0.454378          -12.36426
     53       2.00000          -0.453298          -12.33486
     54       2.00000          -0.452721          -12.31916
     55       2.00000          -0.452119          -12.30278
     56       2.00000          -0.451360          -12.28214
     57       2.00000          -0.450523          -12.25934
     58       2.00000          -0.444978          -12.10847
     59       2.00000          -0.444016          -12.08230
     60       2.00000          -0.439981          -11.97249
     61       0.00000          -0.142533           -3.87853
     62       0.00000          -0.087266           -2.37463
     63       0.00000          -0.069518           -1.89167
     64       0.00000          -0.032885           -0.89485
     65       0.00000          -0.021341           -0.58071
     66       0.00000           0.002023            0.05504
     67       0.00000           0.020683            0.56281
     68       0.00000           0.030893            0.84064
     69       0.00000           0.051350            1.39732
     70       0.00000           0.074402            2.02459
     71       0.00000           0.078083            2.12474
     72       0.00000           0.116563            3.17183
     73       0.00000           0.149185            4.05954
     74       0.00000           0.162224            4.41434
     75       0.00000           0.169725            4.61845
     76       0.00000           0.179418            4.88221
     77       0.00000           0.193702            5.27090
     78       0.00000           0.197736            5.38068
     79       0.00000           0.210889            5.73858
     80       0.00000           0.215709            5.86974
     81       0.00000           0.225112            6.12562
     82       0.00000           0.227405            6.18801
     83       0.00000           0.238335            6.48541
     84       0.00000           0.241764            6.57872
     85       0.00000           0.259708            7.06701
     86       0.00000           0.266255            7.24518
     87       0.00000           0.270174            7.35181
     88       0.00000           0.277897            7.56197
     89       0.00000           0.279247            7.59869
     90       0.00000           0.293353            7.98255
     91       0.00000           0.297480            8.09484
     92       0.00000           0.337384            9.18070
     93       0.00000           0.340436            9.26373
     94       0.00000           0.360744            9.81634
     95       0.00000           0.372924           10.14778
     96       0.00000           0.385196           10.48173

  Highest occupied state (VBM) at    -11.97248723 eV
  | Occupation number:      2.00000000

  Lowest unoccupied state (CBM) at    -3.87852869 eV
  | Occupation number:      0.00000000

  Overall HOMO-LUMO gap:      8.09395854 eV.
  Calculating total energy contributions from superposition of free atom densities.

  Total energy components:
  | Sum of eigenvalues            :        -887.75480809 Ha      -24157.03742479 eV
  | XC energy correction          :        -144.40260135 Ha       -3929.39470813 eV
  | XC potential correction       :         188.02430876 Ha        5116.40176095 eV
  | Free-atom electrostatic energy:        -781.22361976 Ha      -21258.17629790 eV
  | Hartree energy correction     :           0.00000000 Ha           0.00000000 eV
  | Entropy correction            :           0.00000000 Ha           0.00000000 eV
  | ---------------------------
  | Total energy                  :       -1625.35672045 Ha      -44228.20666987 eV
  | Total energy, T -> 0          :       -1625.35672045 Ha      -44228.20666987 eV  <-- do not rely on this value for anything but (periodic) metals
  | Electronic free energy        :       -1625.35672045 Ha      -44228.20666987 eV

  Derived energy quantities:
  | Kinetic energy                :        1627.75498523 Ha       44293.46677492 eV
  | Electrostatic energy          :       -3108.70910433 Ha      -84592.27873666 eV
  | Energy correction for multipole
  | error in Hartree potential    :           0.00000000 Ha           0.00000000 eV
  | Sum of eigenvalues per atom                           :       -2013.08645207 eV
  | Total energy (T->0) per atom                          :       -3685.68388916 eV  <-- do not rely on this value for anything but (periodic) metals
  | Electronic free energy per atom                       :       -3685.68388916 eV
  Initialize hartree_potential_storage
  Max. number of atoms included in rho_multipole:           12

  End scf initialization - timings             :  max(cpu_time)    wall_clock(cpu1)
  | Time for scf. initialization                :        0.160 s           0.160 s
  | Boundary condition initialization           :        0.000 s           0.000 s
  | Relaxation initialization                   :        0.006 s           0.006 s
  | Integration                                 :        0.051 s           0.051 s
  | Solution of K.-S. eqns.                     :        0.029 s           0.029 s
  | Grid partitioning                           :        0.045 s           0.046 s
  | Preloading free-atom quantities on grid     :        0.017 s           0.017 s
  | Free-atom superposition energy              :        0.005 s           0.005 s
  | Total energy evaluation                     :        0.000 s           0.001 s

  Partial memory accounting:
  | Current value for overall tracked memory usage:
  |   Minimum:        0.284 MB (on task 23)
  |   Maximum:        0.303 MB (on task  0)
  |   Average:        0.299 MB
  | Peak value for overall tracked memory usage:
  |   Minimum:        1.370 MB (on task 22 after allocating wave)
  |   Maximum:        1.448 MB (on task  2 after allocating wave)
  |   Average:        1.405 MB
  | Largest tracked array allocation so far:
  |   Minimum:        0.249 MB (H_times_psi on task 22)
  |   Maximum:        0.554 MB (all_coords on task 14)
  |   Average:        0.278 MB
  Note:  These values currently only include a subset of arrays which are explicitly tracked.
  The "true" memory usage will be greater.
------------------------------------------------------------
  Evaluating new KS density.
  Integration grid: deviation in total charge (<rho> - N_e) =   7.105427E-14

  Time for density update prior                :  max(cpu_time)    wall_clock(cpu1)
  | self-consistency iterative process          :        0.030 s           0.030 s

------------------------------------------------------------
          Begin self-consistency iteration #    1

  Date     :  20211214, Time     :  141546.053
------------------------------------------------------------
  Pulay mixing of updated and previous charge densities.
  Renormalizing the density to the exact electron count on the 3D integration grid.
  | Formal number of electrons (from input files) :     120.0000000000
  | Integrated number of electrons on 3D grid     :     120.0000000000
  | Charge integration error                      :      -0.0000000000
  | Normalization factor for density and gradient :       1.0000000000

  Evaluating partitioned Hartree potential by multipole expansion.
  | Original multipole sum: apparent total charge =  -0.439008E-13
  | Sum of charges compensated after spline to logarithmic grids =   0.836656E-04
  | Analytical far-field extrapolation by fixed multipoles:
  | Hartree multipole sum: apparent total charge =  -0.439900E-13
  Summing up the Hartree potential.
  Time summed over all CPUs for potential: real work        0.382 s, elapsed        0.400 s
  | RMS charge density error from multipole expansion :   0.109825E-01

  Integrating Hamiltonian matrix: batch-based integration.
  Time summed over all CPUs for integration: real work        0.706 s, elapsed        0.759 s

  Updating Kohn-Sham eigenvalues and eigenvectors using ELSI and the ELPA eigensolver.
  Starting ELPA eigensolver
  Finished transformation to standard eigenproblem
  | Time :     0.002 s
  Finished solving standard eigenproblem
  | Time :     0.014 s
  Finished back-transformation of eigenvectors
  | Time :     0.001 s

  Obtaining occupation numbers and chemical potential using ELSI.
  | Chemical potential (Fermi level):    -7.29801794 eV
  Writing Kohn-Sham eigenvalues.

  State    Occupation    Eigenvalue [Ha]    Eigenvalue [eV]
      1       2.00000         -55.676362        -1515.03090
      2       2.00000         -55.659960        -1514.58457
      3       2.00000         -55.619710        -1513.48931
      4       2.00000         -24.248679         -659.84012
      5       2.00000         -24.231785         -659.38041
      6       2.00000         -24.214900         -658.92095
      7       2.00000         -24.203047         -658.59841
      8       2.00000         -24.188178         -658.19381
      9       2.00000         -24.091378         -655.55974
     10       2.00000         -24.075225         -655.12021
     11       2.00000         -24.040820         -654.18400
     12       2.00000         -24.034215         -654.00428
     13       2.00000          -4.115116         -111.97800
     14       2.00000          -4.098527         -111.52659
     15       2.00000          -4.058630         -110.44093
     16       2.00000          -2.708004          -73.68853
     17       2.00000          -2.707761          -73.68192
     18       2.00000          -2.707638          -73.67858
     19       2.00000          -2.692261          -73.26016
     20       2.00000          -2.690998          -73.22579
     21       2.00000          -2.690333          -73.20770
     22       2.00000          -2.652440          -72.17658
     23       2.00000          -2.651831          -72.16000
     24       2.00000          -2.649483          -72.09609
     25       2.00000          -1.169370          -31.82017
     26       2.00000          -1.155346          -31.43857
     27       2.00000          -1.134124          -30.86108
     28       2.00000          -1.129598          -30.73793
     29       2.00000          -1.107526          -30.13732
     30       2.00000          -1.036621          -28.20790
     31       2.00000          -1.021299          -27.79096
     32       2.00000          -0.991530          -26.98090
     33       2.00000          -0.984258          -26.78303
     34       2.00000          -0.559176          -15.21594
     35       2.00000          -0.547949          -14.91044
     36       2.00000          -0.524109          -14.26172
     37       2.00000          -0.498561          -13.56653
     38       2.00000          -0.491033          -13.36170
     39       2.00000          -0.479022          -13.03484
     40       2.00000          -0.476632          -12.96980
     41       2.00000          -0.473057          -12.87254
     42       2.00000          -0.457653          -12.45337
     43       2.00000          -0.450693          -12.26398
     44       2.00000          -0.434666          -11.82786
     45       2.00000          -0.423619          -11.52727
     46       2.00000          -0.416831          -11.34254
     47       2.00000          -0.411832          -11.20653
     48       2.00000          -0.400370          -10.89461
     49       2.00000          -0.391229          -10.64588
     50       2.00000          -0.382449          -10.40697
     51       2.00000          -0.366416           -9.97069
     52       2.00000          -0.346459           -9.42764
     53       2.00000          -0.345448           -9.40011
     54       2.00000          -0.333022           -9.06198
     55       2.00000          -0.330702           -8.99887
     56       2.00000          -0.328985           -8.95215
     57       2.00000          -0.305764           -8.32025
     58       2.00000          -0.303035           -8.24600
     59       2.00000          -0.291939           -7.94407
     60       2.00000          -0.283918           -7.72581
     61       0.00000          -0.161797           -4.40272
     62       0.00000          -0.100115           -2.72426
     63       0.00000          -0.065752           -1.78920
     64       0.00000          -0.060589           -1.64871
     65       0.00000          -0.053292           -1.45016
     66       0.00000          -0.016681           -0.45391
     67       0.00000           0.017684            0.48120
     68       0.00000           0.026570            0.72300
     69       0.00000           0.037310            1.01526
     70       0.00000           0.061286            1.66767
     71       0.00000           0.089412            2.43303
     72       0.00000           0.098562            2.68200
     73       0.00000           0.144771            3.93943
     74       0.00000           0.155544            4.23256
     75       0.00000           0.160345            4.36320
     76       0.00000           0.163419            4.44685
     77       0.00000           0.181993            4.95229
     78       0.00000           0.192162            5.22900
     79       0.00000           0.199741            5.43523
     80       0.00000           0.215847            5.87350
     81       0.00000           0.216986            5.90450
     82       0.00000           0.225461            6.13511
     83       0.00000           0.232575            6.32869
     84       0.00000           0.235111            6.39769
     85       0.00000           0.247579            6.73696
     86       0.00000           0.249647            6.79324
     87       0.00000           0.257351            7.00288
     88       0.00000           0.268588            7.30866
     89       0.00000           0.279232            7.59828
     90       0.00000           0.286207            7.78809
     91       0.00000           0.290008            7.89153
     92       0.00000           0.338299            9.20558
     93       0.00000           0.350782            9.54525
     94       0.00000           0.368252           10.02064
     95       0.00000           0.381255           10.37448
     96       0.00000           0.388817           10.58024

  Highest occupied state (VBM) at     -7.72581473 eV
  | Occupation number:      2.00000000

  Lowest unoccupied state (CBM) at    -4.40272433 eV
  | Occupation number:      0.00000000

  Overall HOMO-LUMO gap:      3.32309041 eV.

  Total energy components:
  | Sum of eigenvalues            :        -882.98304219 Ha      -24027.19106811 eV
  | XC energy correction          :        -145.68809452 Ha       -3964.37475705 eV
  | XC potential correction       :         189.71390223 Ha        5162.37793863 eV
  | Free-atom electrostatic energy:        -781.22361976 Ha      -21258.17629790 eV
  | Hartree energy correction     :          -4.96107367 Ha        -134.99768323 eV
  | Entropy correction            :           0.00000000 Ha           0.00000000 eV
  | ---------------------------
  | Total energy                  :       -1625.14192792 Ha      -44222.36186766 eV
  | Total energy, T -> 0          :       -1625.14192792 Ha      -44222.36186766 eV  <-- do not rely on this value for anything but (periodic) metals
  | Electronic free energy        :       -1625.14192792 Ha      -44222.36186766 eV

  Derived energy quantities:
  | Kinetic energy                :        1633.88415736 Ha       44460.25003426 eV
  | Electrostatic energy          :       -3113.33799075 Ha      -84718.23714488 eV
  | Energy correction for multipole
  | error in Hartree potential    :           0.03349512 Ha           0.91144864 eV
  | Sum of eigenvalues per atom                           :       -2002.26592234 eV
  | Total energy (T->0) per atom                          :       -3685.19682231 eV  <-- do not rely on this value for anything but (periodic) metals
  | Electronic free energy per atom                       :       -3685.19682231 eV
  Evaluating new KS density.
  Integration grid: deviation in total charge (<rho> - N_e) =   2.842171E-14

  Self-consistency convergence accuracy:
  | Change of charge density      :  0.5897E+00
  | Change of sum of eigenvalues  :  0.1298E+03 eV
  | Change of total energy        :  0.5845E+01 eV


------------------------------------------------------------
  End self-consistency iteration #     1       :  max(cpu_time)    wall_clock(cpu1)
  | Time for this iteration                     :        0.108 s           0.108 s
  | Charge density update                       :        0.029 s           0.028 s
  | Density mixing                              :        0.001 s           0.001 s
  | Hartree multipole update                    :        0.006 s           0.005 s
  | Hartree multipole summation                 :        0.019 s           0.020 s
  | Integration                                 :        0.034 s           0.034 s
  | Solution of K.-S. eqns.                     :        0.018 s           0.018 s
  | Total energy evaluation                     :        0.001 s           0.000 s

  Partial memory accounting:
  | Current value for overall tracked memory usage:
  |   Minimum:        0.284 MB (on task 23)
  |   Maximum:        0.303 MB (on task  0)
  |   Average:        0.299 MB
  | Peak value for overall tracked memory usage:
  |   Minimum:        1.370 MB (on task 22 after allocating wave)
  |   Maximum:        1.448 MB (on task  2 after allocating wave)
  |   Average:        1.405 MB
  | Largest tracked array allocation so far:
  |   Minimum:        0.742 MB (gradient_basis_wave on task 10)
  |   Maximum:        0.788 MB (gradient_basis_wave on task  2)
  |   Average:        0.763 MB
  Note:  These values currently only include a subset of arrays which are explicitly tracked.
  The "true" memory usage will be greater.
------------------------------------------------------------

------------------------------------------------------------
          Begin self-consistency iteration #    2

  Date     :  20211214, Time     :  141546.169
------------------------------------------------------------
  Pulay mixing of updated and previous charge densities.
  Renormalizing the density to the exact electron count on the 3D integration grid.
  | Formal number of electrons (from input files) :     120.0000000000
  | Integrated number of electrons on 3D grid     :     120.0000000000
  | Charge integration error                      :      -0.0000000000
  | Normalization factor for density and gradient :       1.0000000000

  Evaluating partitioned Hartree potential by multipole expansion.
  | Original multipole sum: apparent total charge =  -0.616942E-13
  | Sum of charges compensated after spline to logarithmic grids =   0.441773E-04
  | Analytical far-field extrapolation by fixed multipoles:
  | Hartree multipole sum: apparent total charge =  -0.620017E-13
  Summing up the Hartree potential.
  Time summed over all CPUs for potential: real work        0.379 s, elapsed        0.397 s
  | RMS charge density error from multipole expansion :   0.127992E-01

  Integrating Hamiltonian matrix: batch-based integration.
  Time summed over all CPUs for integration: real work        0.706 s, elapsed        0.774 s

  Updating Kohn-Sham eigenvalues and eigenvectors using ELSI and the ELPA eigensolver.
  Starting ELPA eigensolver
  Finished transformation to standard eigenproblem
  | Time :     0.004 s
  Finished solving standard eigenproblem
  | Time :     0.012 s
  Finished back-transformation of eigenvectors
  | Time :     0.002 s

  Obtaining occupation numbers and chemical potential using ELSI.
  | Chemical potential (Fermi level):    -7.54614287 eV
  Highest occupied state (VBM) at     -8.75337295 eV
  | Occupation number:      2.00000000

  Lowest unoccupied state (CBM) at    -4.62947605 eV
  | Occupation number:      0.00000000

  Overall HOMO-LUMO gap:      4.12389690 eV.

  Checking to see if s.c.f. parameters should be adjusted.

  Total energy components:
  | Sum of eigenvalues            :        -885.85435313 Ha      -24105.32341395 eV
  | XC energy correction          :        -145.21965652 Ha       -3951.62791047 eV
  | XC potential correction       :         189.09763641 Ha        5145.60849245 eV
  | Free-atom electrostatic energy:        -781.22361976 Ha      -21258.17629790 eV
  | Hartree energy correction     :          -1.88374885 Ha         -51.25941420 eV
  | Entropy correction            :           0.00000000 Ha           0.00000000 eV
  | ---------------------------
  | Total energy                  :       -1625.08374185 Ha      -44220.77854408 eV
  | Total energy, T -> 0          :       -1625.08374185 Ha      -44220.77854408 eV  <-- do not rely on this value for anything but (periodic) metals
  | Electronic free energy        :       -1625.08374185 Ha      -44220.77854408 eV

  Derived energy quantities:
  | Kinetic energy                :        1630.12616196 Ha       44357.98977654 eV
  | Electrostatic energy          :       -3109.99024729 Ha      -84627.14041015 eV
  | Energy correction for multipole
  | error in Hartree potential    :           0.03746364 Ha           1.01943764 eV
  | Sum of eigenvalues per atom                           :       -2008.77695116 eV
  | Total energy (T->0) per atom                          :       -3685.06487867 eV  <-- do not rely on this value for anything but (periodic) metals
  | Electronic free energy per atom                       :       -3685.06487867 eV
  Evaluating new KS density.
  Integration grid: deviation in total charge (<rho> - N_e) =  -2.842171E-14

  Self-consistency convergence accuracy:
  | Change of charge density      :  0.4531E+00
  | Change of sum of eigenvalues  : -0.7813E+02 eV
  | Change of total energy        :  0.1583E+01 eV


------------------------------------------------------------
  End self-consistency iteration #     2       :  max(cpu_time)    wall_clock(cpu1)
  | Time for this iteration                     :        0.107 s           0.103 s
  | Charge density update                       :        0.029 s           0.029 s
  | Density mixing                              :        0.005 s           0.002 s
  | Hartree multipole update                    :        0.001 s           0.001 s
  | Hartree multipole summation                 :        0.017 s           0.017 s
  | Integration                                 :        0.034 s           0.034 s
  | Solution of K.-S. eqns.                     :        0.019 s           0.019 s
  | Total energy evaluation                     :        0.000 s           0.001 s

  Partial memory accounting:
  | Current value for overall tracked memory usage:
  |   Minimum:        0.285 MB (on task 23)
  |   Maximum:        0.304 MB (on task  0)
  |   Average:        0.300 MB
  | Peak value for overall tracked memory usage:
  |   Minimum:        1.370 MB (on task 22 after allocating wave)
  |   Maximum:        1.448 MB (on task  2 after allocating wave)
  |   Average:        1.405 MB
  | Largest tracked array allocation so far:
  |   Minimum:        0.742 MB (gradient_basis_wave on task 10)
  |   Maximum:        0.788 MB (gradient_basis_wave on task  2)
  |   Average:        0.763 MB
  Note:  These values currently only include a subset of arrays which are explicitly tracked.
  The "true" memory usage will be greater.
------------------------------------------------------------

------------------------------------------------------------
          Begin self-consistency iteration #    3

  Date     :  20211214, Time     :  141546.280
------------------------------------------------------------
  Pulay mixing of updated and previous charge densities.
  Renormalizing the density to the exact electron count on the 3D integration grid.
  | Formal number of electrons (from input files) :     120.0000000000
  | Integrated number of electrons on 3D grid     :     120.0000000000
  | Charge integration error                      :      -0.0000000000
  | Normalization factor for density and gradient :       1.0000000000

  Evaluating partitioned Hartree potential by multipole expansion.
  | Original multipole sum: apparent total charge =  -0.722559E-16
  | Sum of charges compensated after spline to logarithmic grids =   0.533741E-04
  | Analytical far-field extrapolation by fixed multipoles:
  | Hartree multipole sum: apparent total charge =  -0.101696E-14
  Summing up the Hartree potential.
  Time summed over all CPUs for potential: real work        0.380 s, elapsed        0.397 s
  | RMS charge density error from multipole expansion :   0.174147E-01

  Integrating Hamiltonian matrix: batch-based integration.
  Time summed over all CPUs for integration: real work        0.707 s, elapsed        0.765 s

  Updating Kohn-Sham eigenvalues and eigenvectors using ELSI and the ELPA eigensolver.
  Starting ELPA eigensolver
  Finished transformation to standard eigenproblem
  | Time :     0.003 s
  Finished solving standard eigenproblem
  | Time :     0.010 s
  Finished back-transformation of eigenvectors
  | Time :     0.001 s

  Obtaining occupation numbers and chemical potential using ELSI.
  | Chemical potential (Fermi level):    -7.53996717 eV
  Highest occupied state (VBM) at     -8.39269863 eV
  | Occupation number:      2.00000000

  Lowest unoccupied state (CBM) at    -4.86237362 eV
  | Occupation number:      0.00000000

  Overall HOMO-LUMO gap:      3.53032501 eV.

  Total energy components:
  | Sum of eigenvalues            :        -886.79008035 Ha      -24130.78584711 eV
  | XC energy correction          :        -145.18470449 Ha       -3950.67681745 eV
  | XC potential correction       :         189.05049542 Ha        5144.32572091 eV
  | Free-atom electrostatic energy:        -781.22361976 Ha      -21258.17629790 eV
  | Hartree energy correction     :          -0.93480428 Ha         -25.43731866 eV
  | Entropy correction            :           0.00000000 Ha           0.00000000 eV
  | ---------------------------
  | Total energy                  :       -1625.08271346 Ha      -44220.75056021 eV
  | Total energy, T -> 0          :       -1625.08271346 Ha      -44220.75056021 eV  <-- do not rely on this value for anything but (periodic) metals
  | Electronic free energy        :       -1625.08271346 Ha      -44220.75056021 eV

  Derived energy quantities:
  | Kinetic energy                :        1628.45845656 Ha       44312.60920382 eV
  | Electrostatic energy          :       -3108.35646553 Ha      -84582.68294658 eV
  | Energy correction for multipole
  | error in Hartree potential    :           0.05042900 Ha           1.37224282 eV
  | Sum of eigenvalues per atom                           :       -2010.89882059 eV
  | Total energy (T->0) per atom                          :       -3685.06254668 eV  <-- do not rely on this value for anything but (periodic) metals
  | Electronic free energy per atom                       :       -3685.06254668 eV
  Evaluating new KS density.
  Integration grid: deviation in total charge (<rho> - N_e) =   2.842171E-14

  Self-consistency convergence accuracy:
  | Change of charge density      :  0.1226E+00
  | Change of sum of eigenvalues  : -0.2546E+02 eV
  | Change of total energy        :  0.2798E-01 eV


------------------------------------------------------------
  End self-consistency iteration #     3       :  max(cpu_time)    wall_clock(cpu1)
  | Time for this iteration                     :        0.104 s           0.102 s
  | Charge density update                       :        0.029 s           0.029 s
  | Density mixing                              :        0.006 s           0.004 s
  | Hartree multipole update                    :        0.001 s           0.001 s
  | Hartree multipole summation                 :        0.018 s           0.018 s
  | Integration                                 :        0.034 s           0.034 s
  | Solution of K.-S. eqns.                     :        0.015 s           0.015 s
  | Total energy evaluation                     :        0.001 s           0.001 s

  Partial memory accounting:
  | Current value for overall tracked memory usage:
  |   Minimum:        0.285 MB (on task 23)
  |   Maximum:        0.304 MB (on task  0)
  |   Average:        0.300 MB
  | Peak value for overall tracked memory usage:
  |   Minimum:        1.370 MB (on task 22 after allocating wave)
  |   Maximum:        1.448 MB (on task  2 after allocating wave)
  |   Average:        1.405 MB
  | Largest tracked array allocation so far:
  |   Minimum:        0.742 MB (gradient_basis_wave on task 10)
  |   Maximum:        0.788 MB (gradient_basis_wave on task  2)
  |   Average:        0.763 MB
  Note:  These values currently only include a subset of arrays which are explicitly tracked.
  The "true" memory usage will be greater.
------------------------------------------------------------

------------------------------------------------------------
          Begin self-consistency iteration #    4

  Date     :  20211214, Time     :  141546.390
------------------------------------------------------------
  Pulay mixing of updated and previous charge densities.
  Renormalizing the density to the exact electron count on the 3D integration grid.
  | Formal number of electrons (from input files) :     120.0000000000
  | Integrated number of electrons on 3D grid     :     120.0000000000
  | Charge integration error                      :      -0.0000000000
  | Normalization factor for density and gradient :       1.0000000000

  Evaluating partitioned Hartree potential by multipole expansion.
  | Original multipole sum: apparent total charge =  -0.283335E-14
  | Sum of charges compensated after spline to logarithmic grids =   0.567584E-04
  | Analytical far-field extrapolation by fixed multipoles:
  | Hartree multipole sum: apparent total charge =  -0.356667E-14
  Summing up the Hartree potential.
  Time summed over all CPUs for potential: real work        0.379 s, elapsed        0.397 s
  | RMS charge density error from multipole expansion :   0.194272E-01

  Integrating Hamiltonian matrix: batch-based integration.
  Time summed over all CPUs for integration: real work        0.706 s, elapsed        0.777 s

  Updating Kohn-Sham eigenvalues and eigenvectors using ELSI and the ELPA eigensolver.
  Starting ELPA eigensolver
  Finished transformation to standard eigenproblem
  | Time :     0.003 s
  Finished solving standard eigenproblem
  | Time :     0.015 s
  Finished back-transformation of eigenvectors
  | Time :     0.001 s

  Obtaining occupation numbers and chemical potential using ELSI.
  | Chemical potential (Fermi level):    -7.53096826 eV
  Highest occupied state (VBM) at     -8.38072937 eV
  | Occupation number:      2.00000000

  Lowest unoccupied state (CBM) at    -4.84113205 eV
  | Occupation number:      0.00000000

  Overall HOMO-LUMO gap:      3.53959732 eV.

  Total energy components:
  | Sum of eigenvalues            :        -886.90350407 Ha      -24133.87226357 eV
  | XC energy correction          :        -145.16919299 Ha       -3950.25472807 eV
  | XC potential correction       :         189.02947059 Ha        5143.75360617 eV
  | Free-atom electrostatic energy:        -781.22361976 Ha      -21258.17629790 eV
  | Hartree energy correction     :          -0.81378089 Ha         -22.14410478 eV
  | Entropy correction            :           0.00000000 Ha           0.00000000 eV
  | ---------------------------
  | Total energy                  :       -1625.08062712 Ha      -44220.69378815 eV
  | Total energy, T -> 0          :       -1625.08062712 Ha      -44220.69378815 eV  <-- do not rely on this value for anything but (periodic) metals
  | Electronic free energy        :       -1625.08062712 Ha      -44220.69378815 eV

  Derived energy quantities:
  | Kinetic energy                :        1627.81062351 Ha       44294.98076956 eV
  | Electrostatic energy          :       -3107.72205764 Ha      -84565.41982964 eV
  | Energy correction for multipole
  | error in Hartree potential    :           0.05561225 Ha           1.51328639 eV
  | Sum of eigenvalues per atom                           :       -2011.15602196 eV
  | Total energy (T->0) per atom                          :       -3685.05781568 eV  <-- do not rely on this value for anything but (periodic) metals
  | Electronic free energy per atom                       :       -3685.05781568 eV
  Evaluating new KS density.
  Integration grid: deviation in total charge (<rho> - N_e) =   2.842171E-14

  Self-consistency convergence accuracy:
  | Change of charge density      :  0.8085E-01
  | Change of sum of eigenvalues  : -0.3086E+01 eV
  | Change of total energy        :  0.5677E-01 eV


------------------------------------------------------------
  End self-consistency iteration #     4       :  max(cpu_time)    wall_clock(cpu1)
  | Time for this iteration                     :        0.110 s           0.107 s
  | Charge density update                       :        0.029 s           0.030 s
  | Density mixing                              :        0.005 s           0.002 s
  | Hartree multipole update                    :        0.001 s           0.001 s
  | Hartree multipole summation                 :        0.018 s           0.019 s
  | Integration                                 :        0.034 s           0.034 s
  | Solution of K.-S. eqns.                     :        0.021 s           0.021 s
  | Total energy evaluation                     :        0.000 s           0.000 s

  Partial memory accounting:
  | Current value for overall tracked memory usage:
  |   Minimum:        0.285 MB (on task 23)
  |   Maximum:        0.304 MB (on task  0)
  |   Average:        0.300 MB
  | Peak value for overall tracked memory usage:
  |   Minimum:        1.370 MB (on task 22 after allocating wave)
  |   Maximum:        1.448 MB (on task  2 after allocating wave)
  |   Average:        1.405 MB
  | Largest tracked array allocation so far:
  |   Minimum:        0.742 MB (gradient_basis_wave on task 10)
  |   Maximum:        0.788 MB (gradient_basis_wave on task  2)
  |   Average:        0.763 MB
  Note:  These values currently only include a subset of arrays which are explicitly tracked.
  The "true" memory usage will be greater.
------------------------------------------------------------

------------------------------------------------------------
          Begin self-consistency iteration #    5

  Date     :  20211214, Time     :  141546.505
------------------------------------------------------------
  Pulay mixing of updated and previous charge densities.
  Renormalizing the density to the exact electron count on the 3D integration grid.
  | Formal number of electrons (from input files) :     120.0000000000
  | Integrated number of electrons on 3D grid     :     120.0000000000
  | Charge integration error                      :       0.0000000000
  | Normalization factor for density and gradient :       1.0000000000

  Evaluating partitioned Hartree potential by multipole expansion.
  | Original multipole sum: apparent total charge =   0.494230E-13
  | Sum of charges compensated after spline to logarithmic grids =   0.576459E-04
  | Analytical far-field extrapolation by fixed multipoles:
  | Hartree multipole sum: apparent total charge =   0.526591E-13
  Summing up the Hartree potential.
  Time summed over all CPUs for potential: real work        0.379 s, elapsed        0.397 s
[...]
   Ionic forces                  :  0.000000E+00  0.000000E+00  0.000000E+00
   Multipole                     : -0.386387E+00 -0.408867E+00  0.159734E+00
   Hartree pot. SCF incomplete   : -0.536266E-05  0.794870E-07 -0.391816E-05
   Pulay + GGA                   :  0.135993E+01  0.141097E+01 -0.182989E+01
   ----------------------------------------------------------------
   Total forces(  12)            :  0.344670E-03  0.404660E-03  0.579027E-03


  Self-consistency convergence accuracy:
  | Change of charge density      :  0.7819E-06
  | Change of sum of eigenvalues  :  0.4794E-04 eV
  | Change of total energy        : -0.1625E-07 eV
  | Change of forces              :  0.5987E-05 eV/A

  Writing Kohn-Sham eigenvalues.

  State    Occupation    Eigenvalue [Ha]    Eigenvalue [eV]
      1       2.00000         -55.600515        -1512.96700
      2       2.00000         -55.590374        -1512.69103
      3       2.00000         -55.553221        -1511.68006
      4       2.00000         -24.288615         -660.92684
      5       2.00000         -24.280962         -660.71859
      6       2.00000         -24.276515         -660.59758
      7       2.00000         -24.258133         -660.09739
      8       2.00000         -24.254129         -659.98843
      9       2.00000         -24.237325         -659.53117
     10       2.00000         -24.217112         -658.98115
     11       2.00000         -24.179295         -657.95211
     12       2.00000         -24.170379         -657.70949
     13       2.00000          -4.064480         -110.60012
     14       2.00000          -4.050927         -110.23133
     15       2.00000          -4.013683         -109.21788
     16       2.00000          -2.657372          -72.31078
     17       2.00000          -2.655994          -72.27327
     18       2.00000          -2.654337          -72.22818
     19       2.00000          -2.643511          -71.93360
     20       2.00000          -2.642573          -71.90808
     21       2.00000          -2.641156          -71.86951
     22       2.00000          -2.607618          -70.95690
     23       2.00000          -2.605163          -70.89009
     24       2.00000          -2.602350          -70.81354
     25       2.00000          -1.184982          -32.24499
     26       2.00000          -1.157983          -31.51032
     27       2.00000          -1.149542          -31.28064
     28       2.00000          -1.148090          -31.24111
     29       2.00000          -1.119552          -30.46456
     30       2.00000          -1.108991          -30.17718
     31       2.00000          -1.087582          -29.59462
     32       2.00000          -1.049956          -28.57076
     33       2.00000          -1.038025          -28.24610
     34       2.00000          -0.558519          -15.19808
     35       2.00000          -0.555240          -15.10885
     36       2.00000          -0.538211          -14.64548
     37       2.00000          -0.512404          -13.94323
     38       2.00000          -0.508181          -13.82832
     39       2.00000          -0.496384          -13.50730
     40       2.00000          -0.490772          -13.35460
     41       2.00000          -0.479138          -13.03802
     42       2.00000          -0.470011          -12.78965
     43       2.00000          -0.457044          -12.43680
     44       2.00000          -0.449445          -12.23002
     45       2.00000          -0.439285          -11.95357
     46       2.00000          -0.435026          -11.83767
     47       2.00000          -0.432812          -11.77741
     48       2.00000          -0.423640          -11.52783
     49       2.00000          -0.415990          -11.31966
     50       2.00000          -0.410041          -11.15777
     51       2.00000          -0.408815          -11.12442
     52       2.00000          -0.407382          -11.08543
     53       2.00000          -0.394255          -10.72822
     54       2.00000          -0.388725          -10.57774
     55       2.00000          -0.386783          -10.52491
     56       2.00000          -0.378587          -10.30187
     57       2.00000          -0.356007           -9.68744
     58       2.00000          -0.351704           -9.57035
     59       2.00000          -0.337957           -9.19627
     60       2.00000          -0.330308           -8.98815
     61       0.00000          -0.113127           -3.07834
     62       0.00000          -0.050792           -1.38212
     63       0.00000          -0.027722           -0.75435
     64       0.00000          -0.019003           -0.51710
     65       0.00000           0.011662            0.31734
     66       0.00000           0.023305            0.63416
     67       0.00000           0.037998            1.03398
     68       0.00000           0.053224            1.44830
     69       0.00000           0.075793            2.06242
     70       0.00000           0.104759            2.85064
     71       0.00000           0.117302            3.19194
     72       0.00000           0.131787            3.58612
     73       0.00000           0.166199            4.52251
     74       0.00000           0.173886            4.73167
     75       0.00000           0.178139            4.84740
     76       0.00000           0.187195            5.09384
     77       0.00000           0.192096            5.22719
     78       0.00000           0.205148            5.58237
     79       0.00000           0.216515            5.89167
     80       0.00000           0.230368            6.26862
     81       0.00000           0.240140            6.53454
     82       0.00000           0.242620            6.60203
     83       0.00000           0.250492            6.81623
     84       0.00000           0.260659            7.09290
     85       0.00000           0.263008            7.15680
     86       0.00000           0.268392            7.30331
     87       0.00000           0.284248            7.73478
     88       0.00000           0.289296            7.87213
     89       0.00000           0.301131            8.19420
     90       0.00000           0.303191            8.25026
     91       0.00000           0.318614            8.66993
     92       0.00000           0.353036            9.60659
     93       0.00000           0.375316           10.21288
     94       0.00000           0.386561           10.51887
     95       0.00000           0.400369           10.89458
     96       0.00000           0.401090           10.91421

  Highest occupied state (VBM) at     -8.98814535 eV
  | Occupation number:      2.00000000

  Lowest unoccupied state (CBM) at    -3.07834213 eV
  | Occupation number:      0.00000000

  Overall HOMO-LUMO gap:      5.90980322 eV.
  | Chemical Potential                          :    -6.94376878 eV

  Self-consistency cycle converged.


------------------------------------------------------------
  End self-consistency iteration #     6       :  max(cpu_time)    wall_clock(cpu1)
  | Time for this iteration                     :        0.274 s           0.273 s
  | Charge density & force component update     :        0.154 s           0.154 s
  | Density mixing                              :        0.004 s           0.002 s
  | Hartree multipole update                    :        0.001 s           0.001 s
  | Hartree multipole summation                 :        0.049 s           0.049 s
  | Hartree pot. SCF incomplete forces          :        0.030 s           0.030 s
  | Integration                                 :        0.032 s           0.032 s
  | Solution of K.-S. eqns.                     :        0.004 s           0.004 s
  | Total energy evaluation                     :        0.000 s           0.000 s

  Partial memory accounting:
  | Current value for overall tracked memory usage:
  |   Minimum:        0.291 MB (on task 23)
  |   Maximum:        0.316 MB (on task  0)
  |   Average:        0.310 MB
  | Peak value for overall tracked memory usage:
  |   Minimum:        3.175 MB (on task 23 after allocating hessian_basis_wave)
  |   Maximum:        3.231 MB (on task  0 after allocating hessian_basis_wave)
  |   Average:        3.220 MB
  | Largest tracked array allocation so far:
  |   Minimum:        1.566 MB (hessian_basis_wave on task 12)
  |   Maximum:        1.584 MB (hessian_basis_wave on task  0)
  |   Average:        1.581 MB
  Note:  These values currently only include a subset of arrays which are explicitly tracked.
  The "true" memory usage will be greater.
------------------------------------------------------------
  Removing unitary transformations (pure translations, rotations) from forces on atoms.
  Atomic forces before filtering:
  | Net force on center of mass :  -0.355735E-02  0.121727E-01  0.278289E-02 eV/A
  | Net torque on center of mass:  -0.848527E-02 -0.995727E-02  0.128306E-01 eV
  Atomic forces after filtering:
  | Net force on center of mass :   0.104535E-17 -0.191647E-17 -0.958236E-18 eV/A
  | Net torque on center of mass:   0.578528E-17  0.175172E-17 -0.230489E-17 eV

  Energy and forces in a compact form:
  | Total energy uncorrected      :         -0.442227002131217E+05 eV
  | Total energy corrected        :         -0.442227002131217E+05 eV  <-- do not rely on this value for anything but (periodic) metals
  | Electronic free energy        :         -0.442227002131217E+05 eV
  Total atomic forces (unitary forces cleaned) [eV/Ang]:
  |    1          0.583697877782417E-03         -0.133940860134012E-03         -0.371871282432407E-03
  |    2          0.852363365001957E-03          0.752662722821410E-03          0.812154152497479E-03
  |    3         -0.746411274499058E-03         -0.207644230336355E-03         -0.765736659231780E-03
  |    4         -0.121902743349011E-03         -0.151891846327247E-03         -0.132046313208722E-03
  |    5         -0.105755371389749E-03         -0.749305286237444E-04          0.480123182354248E-06
  |    6          0.217302864170367E-05          0.119004413756161E-03          0.935583392476806E-04
  |    7         -0.561615184308355E-03         -0.575539177028723E-03          0.153150354556070E-03
  |    8          0.345961678930389E-03         -0.111634738262566E-03         -0.275726463466872E-03
  |    9          0.251562359753113E-03         -0.799086448657649E-04          0.249438377446157E-03
  |   10         -0.165464183431583E-03          0.776836726586042E-03         -0.643019270019565E-04
  |   11         -0.483406143207045E-03         -0.448162601019754E-03         -0.178289971569718E-03
  |   12          0.148796590075223E-03          0.135148763434552E-03          0.479191269981714E-03

  ------------------------------------ 
  Start decomposition of the XC Energy 
  ------------------------------------ 
  X and C from original XC functional choice 
  Hartree-Fock Energy :          0.000000000 Ha              0.000000000 eV
  X Energy            :       -140.579524561 Ha          -3825.363495666 eV
  C Energy            :         -4.986609391 Ha           -135.692545492 eV
  Total XC Energy     :       -145.566133952 Ha          -3961.056041158 eV
  ------------------------------------ 
  LDA X and C from self-consistent density 
  X Energy LDA        :       -133.192824263 Ha          -3624.361153671 eV
  C Energy LDA        :         -8.849855300 Ha           -240.816815337 eV
  ------------------------------------ 
  End decomposition of the XC Energy 
  ------------------------------------ 

------------------------------------------------------------
  Relaxation / MD: End force evaluation.       :  max(cpu_time)    wall_clock(cpu1)
  | Time for this force evaluation              :        0.996 s           1.032 s

------------------------------------------------------------
  Geometry optimization: Attempting to predict improved coordinates.

  Removing unitary transformations (pure translations, rotations) from forces on atoms.
  Atomic forces before filtering:
  | Net force on center of mass :   0.104535E-17 -0.191647E-17 -0.958236E-18 eV/A
  | Net torque on center of mass:   0.578528E-17  0.175172E-17 -0.230489E-17 eV
  Atomic forces after filtering:
  | Net force on center of mass :   0.435562E-19  0.871124E-19  0.000000E+00 eV/A
  | Net torque on center of mass:  -0.138294E-18  0.368783E-18 -0.507077E-18 eV
  Net remaining forces (excluding translations, rotations) in present geometry:
  || Forces on atoms   || =   0.852363E-03 eV/A.
  Maximum force component is  0.852363E-03 eV/A.
  Present geometry is converged.

------------------------------------------------------------
  Final atomic structure:
                         x [A]             y [A]             z [A]
            atom        -0.09728889        1.61860318        2.18259978  Al
            atom         2.50575868        2.59865690        1.78277935  Al
            atom         1.34891577        2.66487794       -0.67513430  Al
            atom         1.07332023        2.93111288        2.86513720  F
            atom        -1.40143455        2.65373746        2.03272596  F
            atom        -0.48740295        0.17023896        2.89535914  F
            atom         1.76201494        0.98796308        1.86499338  F
            atom         2.87103817        1.99952584       -0.07613300  F
            atom         1.14358392        3.08224075       -2.24901050  F
            atom         1.63508605        3.84592503        0.63925714  F
            atom         3.96293340        3.06185026        2.38721158  F
            atom         0.12992423        1.74554172        0.16214027  F
------------------------------------------------------------

------------------------------------------------------------------------------
  Final output of selected total energy values:

  The following output summarizes some interesting total energy values
  at the end of a run (AFTER all relaxation, molecular dynamics, etc.).

  | Total energy of the DFT / Hartree-Fock s.c.f. calculation      :         -44222.700213122 eV
  | Final zero-broadening corrected energy (caution - metals only) :         -44222.700213122 eV
  | For reference only, the value of 1 Hartree used in FHI-aims is :             27.211384500 eV

  Before relying on these values, please be sure to understand exactly which
  total energy value is referred to by a given number. Different objects may
  all carry the same name 'total energy'. Definitions:

  Total energy of the DFT / Hartree-Fock s.c.f. calculation:
  | Note that this energy does not include ANY quantities calculated after the
  | s.c.f. cycle, in particular not ANY RPA, MP2, etc. many-body perturbation terms.

  Final zero-broadening corrected energy:
  | For metallic systems only, a broadening of the occupation numbers at the Fermi
  | level can be extrapolated back to zero broadening by an electron-gas inspired
  | formula. For all systems that are not real metals, this value can be
  | meaningless and should be avoided.

------------------------------------------------------------------------------
  Methods described in the following list of references were used in this FHI-aims run.
  If you publish the results, please make sure to cite these reference if they apply.
  FHI-aims is an academic code, and for our developers (often, Ph.D. students
  and postdocs), scientific credit in the community is essential.
  Thank you for helping us!

  For any use of FHI-aims, please cite:

    Volker Blum, Ralf Gehrke, Felix Hanke, Paula Havu, Ville Havu,
    Xinguo Ren, Karsten Reuter, and Matthias Scheffler
    'Ab initio molecular simulations with numeric atom-centered orbitals'
    Computer Physics Communications 180, 2175-2196 (2009)
    http://dx.doi.org/10.1016/j.cpc.2009.06.022


  The ELSI infrastructure was used in your run to solve the Kohn-Sham electronic structure.
  Please check out http://elsi-interchange.org to learn more.
  If scalability is important for your project, please acknowledge ELSI by citing:

    V. W-z. Yu, F. Corsetti, A. Garcia, W. P. Huhn, M. Jacquelin, W. Jia,
    B. Lange, L. Lin, J. Lu, W. Mi, A. Seifitokaldani, A. Vazquez-Mayagoitia,
    C. Yang, H. Yang, and V. Blum
    'ELSI: A unified software interface for Kohn-Sham electronic structure solvers'
    Computer Physics Communications 222, 267-285 (2018).
    http://dx.doi.org/10.1016/j.cpc.2017.09.007


  For the real-space grid partitioning and parallelization used in this calculation, please cite:

    Ville Havu, Volker Blum, Paula Havu, and Matthias Scheffler,
    'Efficient O(N) integration for all-electron electronic structure calculation'
    'using numerically tabulated basis functions'
    Journal of Computational Physics 228, 8367-8379 (2009).
    http://dx.doi.org/10.1016/j.jcp.2009.08.008

  Of course, there are many other important community references, e.g., those cited in the
  above references. Our list is limited to references that describe implementations in the
  FHI-aims code. The reason is purely practical (length of this list) - please credit others as well.

------------------------------------------------------------
          Leaving FHI-aims.
          Date     :  20211214, Time     :  141617.506

          Computational steps:
          | Number of self-consistency cycles          :          204
          | Number of SCF (re)initializations          :           22
          | Number of relaxation steps                 :           21

          Detailed time accounting                     :  max(cpu_time)    wall_clock(cpu1)
          | Total time                                  :       30.712 s          31.881 s
          | Preparation time                            :        0.184 s           0.187 s
          | Boundary condition initalization            :        0.001 s           0.003 s
          | Grid partitioning                           :        0.877 s           0.880 s
          | Preloading free-atom quantities on grid     :        0.344 s           0.342 s
          | Free-atom superposition energy              :        0.114 s           0.113 s
          | Total time for integrations                 :        7.113 s           7.122 s
          | Total time for solution of K.-S. equations  :        1.821 s           1.838 s
          | Total time for EV reorthonormalization      :        0.161 s           0.161 s
          | Total time for density & force components   :       12.237 s          12.240 s
          | Total time for mixing                       :        0.952 s           0.479 s
          | Total time for Hartree multipole update     :        0.397 s           0.391 s
          | Total time for Hartree multipole sum        :        4.879 s           4.889 s
          | Total time for total energy evaluation      :        0.047 s           0.055 s
          | Total time NSC force correction             :        1.354 s           1.355 s
          | Total time for scaled ZORA corrections      :        0.000 s           0.000 s

          Partial memory accounting:
          | Residual value for overall tracked memory usage across tasks:     0.000000 MB (should be 0.000000 MB)
          | Peak values for overall tracked memory usage:
          |   Minimum:        3.175 MB (on task 23 after allocating hessian_basis_wave)
          |   Maximum:        3.231 MB (on task  0 after allocating hessian_basis_wave)
          |   Average:        3.220 MB
          | Largest tracked array allocation:
          |   Minimum:        1.566 MB (hessian_basis_wave on task 12)
          |   Maximum:        1.584 MB (hessian_basis_wave on task  0)
          |   Average:        1.581 MB
          Note:  These values currently only include a subset of arrays which are explicitly tracked.
          The "true" memory usage will be greater.

          Have a nice day.
------------------------------------------------------------
