------------------------------------------------------------
          Invoking FHI-aims ...

          When using FHI-aims, please cite the following reference:

            Volker Blum, Ralf Gehrke, Felix Hanke, Paula Havu,
            Ville Havu, Xinguo Ren, Karsten Reuter, and Matthias Scheffler,
            'Ab Initio Molecular Simulations with Numeric Atom-Centered Orbitals',
            Computer Physics Communications 180, 2175-2196 (2009)

          In addition, many other developments in FHI-aims are likely important for
          your particular application. A partial list of references is given at the end of
          this file. Thank you for giving credit to the authors of these developments.

          For any questions about FHI-aims, please visit our slack channel at

            https://fhi-aims.slack.com

          and our main development and support site at

            https://aims-git.rz-berlin.mpg.de .

          The latter site, in particular, has a wiki to collect information, as well
          as an issue tracker to log discussions, suggest improvements, and report issues
          or bugs. https://aims-git.rz-berlin.mpg.de is also the main development site
          of the project and all new and updated code versions can be obtained there.
          Please send an email to aims-coordinators@fhi-berlin.mpg.de and we will add
          you to these sites. They are for you and everyone is welcome there.

------------------------------------------------------------



  Date     :  20211214, Time     :  141715.900
  Time zero on CPU 1             :   0.637450000000000E-01  s.
  Internal wall clock time zero  :           408723435.900  s.

  FHI-aims created a unique identifier for this run for later identification
  aims_uuid : 0C72E6A0-00BE-4A05-A15D-12115BA2ACE4

  Build configuration of the current instance of FHI-aims
  -------------------------------------------------------
  FHI-aims version      : 210914
  Commit number         : GITDIR-NOTFOUND
  CMake host system     : Linux-3.10.0-693.17.1.el7.x86_64
  CMake version         : 3.21.1
  Fortran compiler      : /shared/ucl/apps/intel/2018.Update3/impi/2018.3.222/intel64/bin/mpiifort (Intel) version 18.0.3.20180410
  Fortran compiler flags: -O3 -ip -fp-model precise
  C compiler            : /shared/ucl/apps/intel/2018.Update3/compilers_and_libraries_2018.3.222/linux/bin/intel64/icc (Intel) version 18.0.3.20180410
  C compiler flags      : -O3 -ip -fp-model precise -std=gnu99
  ELPA2 kernel          : AVX2
  Using MPI
  Using ScaLAPACK
  Using LibXC
  Using i-PI
  Using RLSY
  Linking against: /shared/ucl/apps/intel/2019.Update5/compilers_and_libraries_2019.5.281/linux/mkl/lib/intel64/libmkl_intel_lp64.so
                   /shared/ucl/apps/intel/2019.Update5/compilers_and_libraries_2019.5.281/linux/mkl/lib/intel64/libmkl_sequential.so
                   /shared/ucl/apps/intel/2019.Update5/compilers_and_libraries_2019.5.281/linux/mkl/lib/intel64/libmkl_core.so
                   /shared/ucl/apps/intel/2019.Update5/compilers_and_libraries_2019.5.281/linux/mkl/lib/intel64/libmkl_blacs_intelmpi_lp64.so
                   /shared/ucl/apps/intel/2019.Update5/compilers_and_libraries_2019.5.281/linux/mkl/lib/intel64/libmkl_scalapack_lp64.so

  Using       24 parallel tasks.
  Task        0 on host node-k98n-005 reporting.
  Task        1 on host node-k98n-005 reporting.
  Task        2 on host node-k98n-005 reporting.
  Task        3 on host node-k98n-005 reporting.
  Task        4 on host node-k98n-005 reporting.
  Task        5 on host node-k98n-005 reporting.
  Task        6 on host node-k98n-005 reporting.
  Task        7 on host node-k98n-005 reporting.
  Task        8 on host node-k98n-005 reporting.
  Task        9 on host node-k98n-005 reporting.
  Task       10 on host node-k98n-005 reporting.
  Task       11 on host node-k98n-005 reporting.
  Task       12 on host node-k98n-005 reporting.
  Task       13 on host node-k98n-005 reporting.
  Task       14 on host node-k98n-005 reporting.
  Task       15 on host node-k98n-005 reporting.
  Task       16 on host node-k98n-005 reporting.
  Task       17 on host node-k98n-005 reporting.
  Task       18 on host node-k98n-005 reporting.
  Task       19 on host node-k98n-005 reporting.
  Task       20 on host node-k98n-005 reporting.
  Task       21 on host node-k98n-005 reporting.
  Task       22 on host node-k98n-005 reporting.
  Task       23 on host node-k98n-005 reporting.

  Performing system and environment tests:
  | Environment variable OMP_NUM_THREADS correctly set to 1.
  | Checking for ScaLAPACK...
  | Testing pdtran()...
  | All pdtran() tests passed.

  Obtaining array dimensions for all initial allocations:
  
  -----------------------------------------------------------------------
  Parsing control.in (first pass over file, find array dimensions only).
  The contents of control.in will be repeated verbatim below
  unless switched off by setting 'verbatim_writeout .false.' .
  in the first line of control.in .
  -----------------------------------------------------------------------
  
  #########################################################################################  Physical model
  #########################################################################################
  xc                 pbesol
  spin               none
  relativistic       atomic_zora scalar
  charge             0.0
  #  SCF convergence
  occupation_type    gaussian 0.01
  mixer              pulay
  n_max_pulay        10
  charge_mix_param   0.5
  sc_accuracy_rho    1E-5
  sc_accuracy_eev    1E-3
  sc_accuracy_etot   1E-6
  sc_accuracy_forces 1E-4
  sc_iter_limit      1500
  #  Relaxation
  relax_geometry   bfgs 1.e-3
  
  ################################################################################
  #
  #  FHI-aims code project
  #  VB, Fritz-Haber Institut, 2009
  #
  #  Suggested "light" defaults for Al atom (to be pasted into control.in file)
  #  Be sure to double-check any results obtained with these settings for post-processing,
  #  e.g., with the "tight" defaults and larger basis sets.
  #
  ################################################################################
    species        Al
  #     global species definitions
      nucleus             13
      mass                26.9815386
  #
      l_hartree           4
  #
      cut_pot             3.5          1.5  1.0
      basis_dep_cutoff    1e-4
  #
      radial_base         41 5.0
      radial_multiplier   1
      angular_grids       specified
        division   0.6594  110
        division   0.8170  194
        division   0.9059  302
  #      division   1.0363  434
  #      division   1.1443  590
  #      division   1.2621  770
  #      division   2.8177  974
  #      outer_grid   974
        outer_grid   302
  ################################################################################
  #
  #  Definition of "minimal" basis
  #
  ################################################################################
  #     valence basis states
      valence      3  s   2.
      valence      3  p   1.
  #     ion occupancy
      ion_occ      3  s   1.
      ion_occ      2  p   6.
  ################################################################################
  #
  #  Suggested additional basis functions. For production calculations,
  #  uncomment them one after another (the most important basis functions are
  #  listed first).
  #
  #  Constructed for dimers: 2.0 A, 2.5 A, 3.0 A, 3.75 A, 4.5 A
  #
  ################################################################################
  #  "First tier" - improvements: -199.47 meV to -10.63 meV
       ionic 3 d auto
       ionic 3 p auto
  #     hydro 4 f 4.7
       ionic 3 s auto
  #  "Second tier" - improvements: -5.35 meV to -1.57 meV
  #     hydro 5 g 7
  #     hydro 3 d 6
  #     hydro 2 s 11.6
  #     hydro 2 p 0.9
  #  "Third tier" - improvements: -0.63 meV to -0.20 meV
  #     hydro 5 f 7.6
  #     hydro 4 p 7.2
  #     hydro 4 s 3.7
  #     hydro 4 d 7.6
  #  "Fourth tier" - improvements: -0.17 meV to -0.08 meV
  #     hydro 4 d 13.6
  #     hydro 5 g 11.2
  #     hydro 4 d 0.9
  #     hydro 1 s 0.4
  #     hydro 4 p 0.1
  #     hydro 5 f 9.8
  #  Further basis functions that fell out of the optimization - noise level...
  #     hydro 4 p 5
  
  ################################################################################
  #
  #  FHI-aims code project
  #  VB, Fritz-Haber Institut, 2009
  #
  #  Suggested "light" defaults for F atom (to be pasted into control.in file)
  #  Be sure to double-check any results obtained with these settings for post-processing,
  #  e.g., with the "tight" defaults and larger basis sets.
  #
  ################################################################################
    species        F
  #     global species definitions
      nucleus             9
      mass                18.9984032
  #
      l_hartree           4
  #
      cut_pot             3.5  1.5  1.0
      basis_dep_cutoff    1e-4
  #
      radial_base         37 5.0
      radial_multiplier   1
      angular_grids specified
        division   0.4014  110
        division   0.5291  194
        division   0.6019  302
  #      division   0.6814  434
  #      division   0.7989  590
  #      division   0.8965  770
  #      division   1.3427  974
  #      outer_grid   974
        outer_grid   302
  ################################################################################
  #
  #  Definition of "minimal" basis
  #
  ################################################################################
  #     valence basis states
      valence      2  s   2.
      valence      2  p   5.
  #     ion occupancy
      ion_occ      2  s   1.
      ion_occ      2  p   4.
  ################################################################################
  #
  #  Suggested additional basis functions. For production calculations,
  #  uncomment them one after another (the most important basis functions are
  #  listed first).
  #
  #  Constructed for dimers: 1.2 A, 1.418 A, 1.75 A, 2.25 A, 3.25 A
  #
  ################################################################################
  #  "First tier" - improvements: -149.44 meV to -45.88 meV
       hydro 2 p 1.7
       hydro 3 d 7.4
       hydro 3 s 6.8
  #  "Second tier" - improvements: -12.96 meV to -1.56 meV
  #     hydro 4 f 11.2
  #     ionic 2 p auto
  #     hydro 1 s 0.75
  #     hydro 4 d 8.8
  #     hydro 5 g 16.8
  #  "Third tier" - improvements: -0.58 meV to -0.05 meV
  #     hydro 3 p 6.2
  #     hydro 3 s 3.2
  #     hydro 4 f 9.6
  #     hydro 3 s 19.6
  #     hydro 4 d 8.6
  #     hydro 5 g 14.4
  # Further basis functions: -0.05 meV and below
  #     hydro 3 p 4.2
  
  -----------------------------------------------------------------------
  Completed first pass over input file control.in .
  -----------------------------------------------------------------------
  
  
  -----------------------------------------------------------------------
  Parsing geometry.in (first pass over file, find array dimensions only).
  The contents of geometry.in will be repeated verbatim below
  unless switched off by setting 'verbatim_writeout .false.' .
  in the first line of geometry.in .
  -----------------------------------------------------------------------
  
  #src_path:/scratch/scratch/uccatka/work/AlF3/clusters/rq/n3/n3_rq/ranked/005//scratch/scratch/uccatka/work/AlF3/clusters/rq/n3/n3_rq
  atom      -1.698799    2.557962   -1.228798   Al
  atom      -0.531749   -0.001021   -2.348065   Al
  atom      -2.201383   -0.340733   -0.515962   Al
  atom      -0.754526    3.682779   -0.159695    F
  atom      -3.015027    3.176750   -2.313569    F
  atom      -1.378928   -1.676296   -1.722417    F
  atom      -2.524847    1.447985    0.053978    F
  atom      -3.248283   -1.304579    0.601214    F
  atom       0.620335   -0.517449   -3.643861    F
  atom      -0.334234    1.893697   -2.349796    F
  atom      -2.454892    0.474372   -2.304185    F
  atom      -0.302608    0.155665   -0.401859    F
  
  -----------------------------------------------------------------------
  Completed first pass over input file geometry.in .
  -----------------------------------------------------------------------
  

  Basic array size parameters:
  | Number of species                 :        2
  | Number of atoms                   :       12
  | Max. basis fn. angular momentum   :        2
  | Max. atomic/ionic basis occupied n:        3
  | Max. number of basis fn. types    :        3
  | Max. radial fns per species/type  :        5
  | Max. logarithmic grid size        :     1340
  | Max. radial integration grid size :       41
  | Max. angular integration grid size:      302
  | Max. angular grid division number :        8
  | Radial grid for Hartree potential :     1340
  | Number of spin channels           :        1

------------------------------------------------------------
          Reading file control.in.
------------------------------------------------------------
  XC: Using PBEsol gradient-corrected functionals.
  Spin treatment: No spin polarisation.
  Scalar relativistic treatment of kinetic energy: on-site free-atom approximation to ZORA.
  Charge =   0.000000E+00: Neutral system requested explicitly.
  Occupation type: Gaussian broadening, width =   0.100000E-01 eV.
  Using pulay charge density mixing.
  Pulay mixing - number of memorized iterations:   10
  Charge density mixing - mixing parameter:     0.5000
  Convergence accuracy of self-consistent charge density:  0.1000E-04
  Convergence accuracy of sum of eigenvalues:  0.1000E-02
  Convergence accuracy of total energy:  0.1000E-05
  Convergence accuracy of forces:  0.1000E-03
  Maximum number of s.-c. iterations  :  1500
  Geometry relaxation: Modified BFGS - TRM (trust radius method) for lattice optimization.
  Convergence accuracy for geometry relaxation: Maximum force <   0.100000E-02 eV/A.
 
  Reading configuration options for species Al                  .
  | Found nuclear charge :  13.0000
  | Found atomic mass :    26.9815386000000      amu
  | Found l_max for Hartree potential  :   4
  | Found cutoff potl. onset [A], width [A], scale factor :    3.50000    1.50000    1.00000
  | Threshold for basis-dependent cutoff potential is   0.100000E-03
  | Found data for basic radial integration grid :    41 points, outermost radius =    5.000 A
  | Found multiplier for basic radial grid :   1
  | Found angular grid specification: user-specified.
  | Specified grid contains     4 separate shells.
  | Check grid settings after all constraints further below.
  | Found free-atom valence shell :  3 s   2.000
  | Found free-atom valence shell :  3 p   1.000
  | Found free-ion valence shell :  3 s   1.000
  | Found free-ion valence shell :  2 p   6.000
  | Found ionic basis function :  3 d , default cutoff radius.
  | Found ionic basis function :  3 p , default cutoff radius.
  | Found ionic basis function :  3 s , default cutoff radius.
  Species Al                  : Missing cutoff potential type.
  Defaulting to exp(1/x)/(1-x)^2 type cutoff potential.
  Species Al: No 'logarithmic' tag. Using default grid for free atom:
  | Default logarithmic grid data [bohr] : 0.1000E-03 0.1000E+03 0.1012E+01
  | Will include ionic basis functions of  2.0-fold positive Al                   ion.
  Species Al: On-site basis accuracy parameter (for Gram-Schmidt orthonormalisation) not specified.
  Using default value basis_acc =  0.1000000E-03.
  Species Al                  : Using default innermost maximum threshold i_radial=  2 for radial functions.
  Species Al                  : Default cutoff onset for free atom density etc. : 0.35000000E+01 AA.
  Species Al                  : Basic radial grid will be enhanced according to radial_multiplier =   1, to contain    41 grid points.
 
  Reading configuration options for species F                   .
  | Found nuclear charge :   9.0000
  | Found atomic mass :    18.9984032000000      amu
  | Found l_max for Hartree potential  :   4
  | Found cutoff potl. onset [A], width [A], scale factor :    3.50000    1.50000    1.00000
  | Threshold for basis-dependent cutoff potential is   0.100000E-03
  | Found data for basic radial integration grid :    37 points, outermost radius =    5.000 A
  | Found multiplier for basic radial grid :   1
  | Found angular grid specification: user-specified.
  | Specified grid contains     4 separate shells.
  | Check grid settings after all constraints further below.
  | Found free-atom valence shell :  2 s   2.000
  | Found free-atom valence shell :  2 p   5.000
  | Found free-ion valence shell :  2 s   1.000
  | Found free-ion valence shell :  2 p   4.000
  | Found hydrogenic basis function :  2 p   1.700
  | Found hydrogenic basis function :  3 d   7.400
  | Found hydrogenic basis function :  3 s   6.800
  Species F                   : Missing cutoff potential type.
  Defaulting to exp(1/x)/(1-x)^2 type cutoff potential.
  Species F : No 'logarithmic' tag. Using default grid for free atom:
  | Default logarithmic grid data [bohr] : 0.1000E-03 0.1000E+03 0.1012E+01
  Species F : On-site basis accuracy parameter (for Gram-Schmidt orthonormalisation) not specified.
  Using default value basis_acc =  0.1000000E-03.
  Species F                   : Using default innermost maximum threshold i_radial=  2 for radial functions.
  Species F                   : Default cutoff onset for free atom density etc. : 0.35000000E+01 AA.
  Species F                   : Basic radial grid will be enhanced according to radial_multiplier =   1, to contain    37 grid points.
 
  Finished reading input file 'control.in'.
 
------------------------------------------------------------


------------------------------------------------------------
          Reading geometry description geometry.in.
------------------------------------------------------------
  | The smallest distance between any two atoms is         1.80916581 AA.
  | The first atom of this pair is atom number                      3 .
  | The second atom of this pair is atom number                     8 .
  Input structure read successfully.
  The structure contains       12 atoms,  and a total of        120.000 electrons.

  Input geometry:
  | No unit cell requested.
  | Atomic structure:
  |       Atom                x [A]            y [A]            z [A]
  |    1: Species Al           -1.69879900        2.55796200       -1.22879800
  |    2: Species Al           -0.53174900       -0.00102100       -2.34806500
  |    3: Species Al           -2.20138300       -0.34073300       -0.51596200
  |    4: Species F            -0.75452600        3.68277900       -0.15969500
  |    5: Species F            -3.01502700        3.17675000       -2.31356900
  |    6: Species F            -1.37892800       -1.67629600       -1.72241700
  |    7: Species F            -2.52484700        1.44798500        0.05397800
  |    8: Species F            -3.24828300       -1.30457900        0.60121400
  |    9: Species F             0.62033500       -0.51744900       -3.64386100
  |   10: Species F            -0.33423400        1.89369700       -2.34979600
  |   11: Species F            -2.45489200        0.47437200       -2.30418500
  |   12: Species F            -0.30260800        0.15566500       -0.40185900

 
  Finished reading input file 'control.in'.
 

------------------------------------------------------------
          Reading geometry description geometry.in.
------------------------------------------------------------
 
  Consistency checks for stacksize environment parameter are next.
 
  | Maximum stacksize for task 0: unlimited
  | Maximum stacksize for task 1: unlimited
  | Maximum stacksize for task 2: unlimited
  | Maximum stacksize for task 3: unlimited
  | Maximum stacksize for task 4: unlimited
  | Maximum stacksize for task 5: unlimited
  | Maximum stacksize for task 6: unlimited
  | Maximum stacksize for task 7: unlimited
  | Maximum stacksize for task 8: unlimited
  | Maximum stacksize for task 9: unlimited
  | Maximum stacksize for task 10: unlimited
  | Maximum stacksize for task 11: unlimited
  | Maximum stacksize for task 12: unlimited
  | Maximum stacksize for task 13: unlimited
  | Maximum stacksize for task 14: unlimited
  | Maximum stacksize for task 15: unlimited
  | Maximum stacksize for task 16: unlimited
  | Maximum stacksize for task 17: unlimited
  | Maximum stacksize for task 18: unlimited
  | Maximum stacksize for task 19: unlimited
  | Maximum stacksize for task 20: unlimited
  | Maximum stacksize for task 21: unlimited
  | Maximum stacksize for task 22: unlimited
  | Maximum stacksize for task 23: unlimited
  | Current stacksize for task 0: unlimited
  | Current stacksize for task 1: unlimited
  | Current stacksize for task 2: unlimited
  | Current stacksize for task 3: unlimited
  | Current stacksize for task 4: unlimited
  | Current stacksize for task 5: unlimited
  | Current stacksize for task 6: unlimited
  | Current stacksize for task 7: unlimited
  | Current stacksize for task 8: unlimited
  | Current stacksize for task 9: unlimited
  | Current stacksize for task 10: unlimited
  | Current stacksize for task 11: unlimited
  | Current stacksize for task 12: unlimited
  | Current stacksize for task 13: unlimited
  | Current stacksize for task 14: unlimited
  | Current stacksize for task 15: unlimited
  | Current stacksize for task 16: unlimited
  | Current stacksize for task 17: unlimited
  | Current stacksize for task 18: unlimited
  | Current stacksize for task 19: unlimited
  | Current stacksize for task 20: unlimited
  | Current stacksize for task 21: unlimited
  | Current stacksize for task 22: unlimited
  | Current stacksize for task 23: unlimited
 
  Consistency checks for the contents of control.in are next.
 
  MPI_IN_PLACE appears to work with this MPI implementation.
  | Keeping use_mpi_in_place .true. (see manual).
  Target number of points in a grid batch is not set. Defaulting to  100
  Method for grid partitioning is not set. Defaulting to parallel hash+maxmin partitioning.
  Batch size limit is not set. Defaulting to    200
  By default, will store active basis functions for each batch.
  If in need of memory, prune_basis_once .false. can be used to disable this option.
  communication_type for Hartree potential was not specified.
  Defaulting to calc_hartree .
  Pulay mixer: Number of initial linear mixing iterations not set.
  Defaulting to    0 iterations.
  Work space size for distributed Hartree potential not set.
  Defaulting to   0.200000E+03 MB.
  Algorithm-dependent basis array size parameters:
  | n_max_pulay                         :       10
  Presetting      1001 iterations before the initial mixing cycle
  is restarted anyway using the sc_init_iter criterion / keyword.
  Presetting a factor      1.000 between actual scf density residual
  and density convergence criterion sc_accuracy_rho below which sc_init_iter
  takes no effect.
  No maximum number of relaxation steps, defaulting to     1000
  Default initial Hessian is Lindh matrix (thres = 15.00) plus  0.200000E+01 eV/A^2 times unity.
  No maximum energy tolerance for TRM/BFGS moves, defaulting to   0.100000E-02
  Maximum energy tolerance by which TRM/BFGS trajectory may increase over multiple steps:   0.300000E-02
  No harmonic length scale. Defaulting to   0.250000E-01 A.
  No trust radius initializer. Defaulting to   0.200000E+00 A.
  Forces evaluation will include force correction term due to incomplete self-consistency (default).
  Handling of forces: Unphysical translation and rotation will be removed from forces.
  No accuracy limit for integral partition fn. given. Defaulting to  0.1000E-14.
  No threshold value for u(r) in integrations given. Defaulting to  0.1000E-05.
  No accuracy for occupation numbers given. Defaulting to  0.1000E-12.
  No threshold value for occupation numbers given. Defaulting to  0.0000E+00.
  No accuracy for fermi level given. Defaulting to  0.1000E-19.
  Maximum # of iterations to find E_F not set. Defaulting to  200.
  Preferred method for the eigenvalue solver ('KS_method') not specified in 'control.in'.
  Calling BLACS routine to test compilation state
  Since ScaLAPACK support is enabled, defaulting to ELPA (via ELSI).
  Will not use alltoall communication since running on < 1024 CPUs.
  Threshold for basis singularities not set.
  Default threshold for basis singularities:  0.1000E-04
  partition_type (choice of integration weights) for integrals was not specified.
  | Using a version of the partition function of Stratmann and coworkers ('stratmann_sparse').
  | At each grid point, the set of atoms used to build the partition table is smoothly restricted to
  | only those atoms whose free-atom density would be non-zero at that grid point.
  Partitioning for Hartree potential was not defined. Using partition_type for integrals.
  | Adjusted default value of keyword multip_moments_threshold to:       0.10000000E-11
  | This value may affect high angular momentum components of the Hartree potential in periodic systems.
  No q(lm)/r^(l+1) cutoff set for long-range Hartree potential.
  | Using default value of  0.100000E-09 .
  | Verify using the multipole_threshold keyword.
  Defaulting to new monopole extrapolation.
  Density update method: automatic selection selected.
  Geometry relaxation: A file "geometry.in.next_step" is written out by default after each step.
  | This file contains the geometry of the current relaxation step as well as
  | the current Hessian matrix needed to restart the relaxation algorithm.
  | If you do not want part or all of this information, use the keywords
  | "write_restart_geometry" or "hessian_to_restart_geometry" to switch the output off.
  Charge integration errors on the 3D integration grid will be compensated
  by explicit normalization and distribution of residual charges.
  Use the "compensate_multipole_errors" flag to change this behaviour.
  Set 'collect_eigenvectors' to be '.true.' for use_density_matrix .false.
 
  Consistency checks for the contents of geometry.in are next.
 
  Number of empty states per atom not set in control.in - providing a guess from actual geometry.
  | Total number of empty states used during s.c.f. cycle:       36
  If you use a very high smearing, use empty_states (per atom!) in control.in to increase this value.

  Structure-dependent array size parameters: 
  | Maximum number of distinct radial functions  :       14
  | Maximum number of basis functions            :      180
  | Number of Kohn-Sham states (occupied + empty):       96
------------------------------------------------------------

------------------------------------------------------------
          Preparing all fixed parts of the calculation.
------------------------------------------------------------
  Determining machine precision:
    2.225073858507201E-308
  Setting up grids for atomic and cluster calculations.

  Creating wave function, potential, and density for free atoms.

  Species: Al

  List of occupied orbitals and eigenvalues:
    n    l              occ      energy [Ha]    energy [eV]
    1    0           2.0000       -55.621123     -1513.5278
    2    0           2.0000        -3.957030      -107.6763
    3    0           2.0000        -0.272233        -7.4078
    2    1           6.0000        -2.540949       -69.1427
    3    1           1.0000        -0.083300        -2.2667


  Species: F

  List of occupied orbitals and eigenvalues:
    n    l              occ      energy [Ha]    energy [eV]
    1    0           2.0000       -24.399611      -663.9472
    2    0           2.0000        -1.098702       -29.8972
    2    1           5.0000        -0.408210       -11.1080


  Adding cutoff potential to free-atom effective potential.
  Creating fixed part of basis set: Ionic, confined, hydrogenic.
 
  Al                   ion:

  List of free ionic orbitals and eigenvalues:
    n    l      energy [Ha]    energy [eV]
    1    0       -56.418846     -1535.2349
    2    0        -4.732717      -128.7838
    3    0        -0.872690       -23.7471
    2    1        -3.317230       -90.2664


  List of ionic basis orbitals and eigenvalues:
    n    l      energy [Ha]    energy [eV]    outer radius [A]
    3    2        -0.346815        -9.4373       4.594041
    3    1        -0.631870       -17.1940       4.538221
    3    0        -0.872657       -23.7462       4.538221

 
  F                    hydrogenic:
 
  List of hydrogenic basis orbitals: 
    n    l      effective z      eigenvalue [eV]  inner max. [A]     outer max. [A]     outer radius [A]   
    2    1         1.700000        -9.7616           1.243167           1.243167           4.598524
    3    2         7.400000       -82.7828           0.642437           0.642437           3.305741
    3    0         6.800000       -69.9026           0.057798           1.022307           3.781556
 
  Creating atomic-like basis functions for current effective potential.

  Species Al                  :

  List of atomic basis orbitals and eigenvalues:
    n    l      energy [Ha]    energy [eV]    outer radius [A]
    1    0       -55.621123     -1513.5278       0.850197
    2    0        -3.957030      -107.6763       3.144911
    3    0        -0.272233        -7.4078       4.594041
    2    1        -2.540949       -69.1427       3.731966
    3    1        -0.083300        -2.2667       4.594041


  Species F                   :

  List of atomic basis orbitals and eigenvalues:
    n    l      energy [Ha]    energy [eV]    outer radius [A]
    1    0       -24.399611      -663.9472       1.258458
    2    0        -1.098702       -29.8972       4.325857
    2    1        -0.408210       -11.1080       4.487453

  Assembling full basis from fixed parts.
  | Species Al :   atomic orbital   1 s accepted.
  | Species Al :   atomic orbital   2 s accepted.
  | Species Al :    ionic orbital   3 s accepted.
  | Species Al :   atomic orbital   3 s accepted.
  | Species Al :   atomic orbital   2 p accepted.
  | Species Al :    ionic orbital   3 p accepted.
  | Species Al :   atomic orbital   3 p accepted.
  | Species Al :    ionic orbital   3 d accepted.
  | Species F :   atomic orbital   1 s accepted.
  | Species F :    hydro orbital   3 s accepted.
  | Species F :   atomic orbital   2 s accepted.
  | Species F :   atomic orbital   2 p accepted.
  | Species F :    hydro orbital   2 p accepted.
  | Species F :    hydro orbital   3 d accepted.
 
  Basis size parameters after reduction:
  | Total number of radial functions:       14
  | Total number of basis functions :      180
 
  Per-task memory consumption for arrays in subroutine allocate_ext:
  |           4.807768MB.
  Testing on-site integration grid accuracy.
  |  Species  Function  <phi|h_atom|phi> (log., in eV)  <phi|h_atom|phi> (rad., in eV)
           1        1              -1513.5277717935              -1513.5271881332
           1        2               -107.6762691836               -107.6762662489
           1        3                 -6.9467474784                 -6.9471269649
           1        4                  5.5771951849                  5.4862107220 ***
           1        5                -69.1427313144                -69.1427312731
           1        6                 -1.5197375330                 -1.5230432022
           1        7                  6.8210948310                  6.5529872240 ***
           1        8                  4.3216540965                  4.2851170187 ***
           2        9               -663.9471986398               -663.9470363334
           2       10                 16.8514011578                 16.8512525338
           2       11                -28.4490593856                -28.4490661472
           2       12                -11.1080115307                -11.1080620173
           2       13                  7.1940182175                  7.1685154137
           2       14                 44.8544281765                 44.8543763625
 * Note: Onsite integrals marked "***" above are less accurate than
 * onsite_accuracy_threshold =    0.03000 eV. Usually, this is harmless.
 * When in doubt, tighten the "radial" and/or "radial_multiplier" flags to check.

  Preparing densities etc. for the partition functions (integrals / Hartree potential).

  Preparations completed.
  max(cpu_time)          :      0.184 s.
  Wall clock time (cpu1) :      0.185 s.
------------------------------------------------------------

------------------------------------------------------------
          Begin self-consistency loop: Initialization.

          Date     :  20211214, Time     :  141716.133
------------------------------------------------------------

  Initializing index lists of integration centers etc. from given atomic structure:
  | Number of centers in hartree potential         :        12
  | Number of centers in hartree multipole         :        12
  | Number of centers in electron density summation:        12
  | Number of centers in basis integrals           :        12
  | Number of centers in integrals                 :        12
  | Number of centers in hamiltonian               :        12

  Initializing relaxation algorithms.
  Finished initialization of distributed Hessian storage.
  | Global dimension:        36
  | BLACS block size:         2
  | Number of workers:       18

  * Using 24 tasks for Scalapack Eigenvalue solver.
  Detailed listing of tasks and assigned k-points:
  (for non-periodic systems, the "k-point" denotes an internal label only)
   Task     0 k-point     1 on node-k98n-005
   Task     1 k-point     1 on node-k98n-005
   Task     2 k-point     1 on node-k98n-005
   Task     3 k-point     1 on node-k98n-005
   Task     4 k-point     1 on node-k98n-005
   Task     5 k-point     1 on node-k98n-005
   Task     6 k-point     1 on node-k98n-005
   Task     7 k-point     1 on node-k98n-005
   Task     8 k-point     1 on node-k98n-005
   Task     9 k-point     1 on node-k98n-005
   Task    10 k-point     1 on node-k98n-005
   Task    11 k-point     1 on node-k98n-005
   Task    12 k-point     1 on node-k98n-005
   Task    13 k-point     1 on node-k98n-005
   Task    14 k-point     1 on node-k98n-005
   Task    15 k-point     1 on node-k98n-005
   Task    16 k-point     1 on node-k98n-005
   Task    17 k-point     1 on node-k98n-005
   Task    18 k-point     1 on node-k98n-005
   Task    19 k-point     1 on node-k98n-005
   Task    20 k-point     1 on node-k98n-005
   Task    21 k-point     1 on node-k98n-005
   Task    22 k-point     1 on node-k98n-005
   Task    23 k-point     1 on node-k98n-005
  Tasks:    24 split into      6 X      4 BLACS grid
  Calculating block size based on n_basis =          180  max_nprow =            6  max_npcol =            4
  ScaLAPACK block size set to:           16
  Allocating        0.012 MB for ovlp
  Allocating        0.012 MB for ham
  Allocating        0.012 MB for eigenvec
  Required Scalapack workspace - INTEGER:            1  REAL:             1
  Partitioning the integration grid into batches with parallel hashing+maxmin method.
  | Number of batches:     1070
  | Maximal batch size:     197
  | Minimal batch size:      43
  | Average batch size:      85.907
  | Standard deviation of batch sizes:      20.259

  Integration load balanced across    24 MPI tasks.
  Work distribution over tasks is as follows:
  Task     0 has       3772 integration points.
  Task     1 has       3873 integration points.
  Task     2 has       3797 integration points.
  Task     3 has       3797 integration points.
  Task     4 has       3790 integration points.
  Task     5 has       3860 integration points.
  Task     6 has       3879 integration points.
  Task     7 has       3887 integration points.
  Task     8 has       3777 integration points.
  Task     9 has       3813 integration points.
  Task    10 has       3851 integration points.
  Task    11 has       3769 integration points.
  Task    12 has       3871 integration points.
  Task    13 has       3808 integration points.
  Task    14 has       3772 integration points.
  Task    15 has       3861 integration points.
  Task    16 has       3868 integration points.
  Task    17 has       3800 integration points.
  Task    18 has       3863 integration points.
  Task    19 has       3791 integration points.
  Task    20 has       3856 integration points.
  Task    21 has       3888 integration points.
  Task    22 has       3891 integration points.
  Task    23 has       3786 integration points.
  Initializing partition tables, free-atom densities, potentials, etc. across the integration grid (initialize_grid_storage).
  | initialize_grid_storage: Actual outermost partition radius vs. multipole_radius_free
  | (-- VB: in principle, multipole_radius_free should be larger, hence this output)
  | Species        1: Confinement radius =              4.999999999999999 AA, multipole_radius_free =              5.004487022111096 AA.
  | Species        1: outer_partition_radius set to              5.004487022111096 AA .
  | Species        2: Confinement radius =              4.999999999999999 AA, multipole_radius_free =              5.009370088163274 AA.
  | Species        2: outer_partition_radius set to              5.009370088163274 AA .
  | The sparse table of interatomic distances needs          1.64 kbyte instead of         1.15 kbyte of memory.
  | Using the partition_type stratmann_smoother will reduce your memory usage.
  | Net number of integration points:    91920
  | of which are non-zero points    :    84983
  Renormalizing the initial density to the exact electron count on the 3D integration grid.
  | Initial density: Formal number of electrons (from input files) :     120.0000000000
  | Integrated number of electrons on 3D grid     :     119.9999494039
  | Charge integration error                      :      -0.0000505961
  | Normalization factor for density and gradient :       1.0000004216
  Renormalizing the free-atom superposition density to the exact electron count on the 3D integration grid.
  | Formal number of electrons (from input files) :     120.0000000000
  | Integrated number of electrons on 3D grid     :     119.9999494039
  | Charge integration error                      :      -0.0000505961
  | Normalization factor for density and gradient :       1.0000004216
  Obtaining max. number of non-zero basis functions in each batch (get_n_compute_maxes).
  | Maximal number of non-zero basis functions:      172 in task     0
  | Maximal number of non-zero basis functions:      163 in task     1
  | Maximal number of non-zero basis functions:      165 in task     2
  | Maximal number of non-zero basis functions:      164 in task     3
  | Maximal number of non-zero basis functions:      163 in task     4
  | Maximal number of non-zero basis functions:      171 in task     5
  | Maximal number of non-zero basis functions:      165 in task     6
  | Maximal number of non-zero basis functions:      167 in task     7
  | Maximal number of non-zero basis functions:      173 in task     8
  | Maximal number of non-zero basis functions:      170 in task     9
  | Maximal number of non-zero basis functions:      167 in task    10
  | Maximal number of non-zero basis functions:      165 in task    11
  | Maximal number of non-zero basis functions:      172 in task    12
  | Maximal number of non-zero basis functions:      167 in task    13
  | Maximal number of non-zero basis functions:      170 in task    14
  | Maximal number of non-zero basis functions:      165 in task    15
  | Maximal number of non-zero basis functions:      166 in task    16
  | Maximal number of non-zero basis functions:      169 in task    17
  | Maximal number of non-zero basis functions:      172 in task    18
  | Maximal number of non-zero basis functions:      170 in task    19
  | Maximal number of non-zero basis functions:      165 in task    20
  | Maximal number of non-zero basis functions:      170 in task    21
  | Maximal number of non-zero basis functions:      163 in task    22
  | Maximal number of non-zero basis functions:      169 in task    23
  Selecting the method for density update.
  Loop over occupied states selected for charge density update.
  Allocating        0.132 MB for KS_eigenvector
  Integrating Hamiltonian matrix: batch-based integration.
  Time summed over all CPUs for integration: real work        0.764 s, elapsed        0.802 s
  Integrating overlap matrix.
  Time summed over all CPUs for integration: real work        0.294 s, elapsed        0.312 s
  Deallocating overlap matrix.

  Updating Kohn-Sham eigenvalues and eigenvectors using ELSI and the ELPA eigensolver.
  Overlap matrix is not singular
  | Lowest and highest eigenvalues :  0.2182E-02,  0.5790E+01
  Finished singularity check of overlap matrix
  | Time :     0.004 s
  Starting ELPA eigensolver
  Finished Cholesky decomposition
  | Time :     0.003 s
  Finished transformation to standard eigenproblem
  | Time :     0.000 s
  Finished solving standard eigenproblem
  | Time :     0.003 s
  Finished back-transformation of eigenvectors
  | Time :     0.000 s

  Obtaining occupation numbers and chemical potential using ELSI.
  | Chemical potential (Fermi level):    -7.48224627 eV
  Writing Kohn-Sham eigenvalues.

  State    Occupation    Eigenvalue [Ha]    Eigenvalue [eV]
      1       2.00000         -55.487042        -1509.87922
      2       2.00000         -55.487041        -1509.87922
      3       2.00000         -55.483747        -1509.78957
      4       2.00000         -24.363046         -662.95221
      5       2.00000         -24.363046         -662.95221
      6       2.00000         -24.354009         -662.70631
      7       2.00000         -24.352237         -662.65808
      8       2.00000         -24.349324         -662.57883
      9       2.00000         -24.341378         -662.36260
     10       2.00000         -24.341378         -662.36259
     11       2.00000         -24.340778         -662.34626
     12       2.00000         -24.340517         -662.33918
     13       2.00000          -3.952827         -107.56190
     14       2.00000          -3.952696         -107.55834
     15       2.00000          -3.948963         -107.45675
     16       2.00000          -2.547085          -69.30971
     17       2.00000          -2.545946          -69.27871
     18       2.00000          -2.544384          -69.23622
     19       2.00000          -2.544207          -69.23138
     20       2.00000          -2.543083          -69.20082
     21       2.00000          -2.542948          -69.19714
     22       2.00000          -2.541296          -69.15217
     23       2.00000          -2.540654          -69.13472
     24       2.00000          -2.540575          -69.13255
     25       2.00000          -1.194088          -32.49279
     26       2.00000          -1.183218          -32.19700
     27       2.00000          -1.175889          -31.99756
     28       2.00000          -1.169927          -31.83533
     29       2.00000          -1.158677          -31.52920
     30       2.00000          -1.150246          -31.29978
     31       2.00000          -1.150181          -31.29801
     32       2.00000          -1.149700          -31.28492
     33       2.00000          -1.147808          -31.23343
     34       2.00000          -0.568701          -15.47515
     35       2.00000          -0.551712          -15.01284
     36       2.00000          -0.548458          -14.92430
     37       2.00000          -0.529517          -14.40889
     38       2.00000          -0.520016          -14.15036
     39       2.00000          -0.510198          -13.88319
     40       2.00000          -0.508227          -13.82955
     41       2.00000          -0.503519          -13.70144
     42       2.00000          -0.498410          -13.56242
     43       2.00000          -0.497073          -13.52603
     44       2.00000          -0.488088          -13.28156
     45       2.00000          -0.481980          -13.11535
     46       2.00000          -0.480239          -13.06798
     47       2.00000          -0.474344          -12.90755
     48       2.00000          -0.472057          -12.84532
     49       2.00000          -0.468973          -12.76140
     50       2.00000          -0.466057          -12.68206
     51       2.00000          -0.460606          -12.53374
     52       2.00000          -0.453127          -12.33022
     53       2.00000          -0.452433          -12.31133
     54       2.00000          -0.452264          -12.30673
     55       2.00000          -0.452141          -12.30337
     56       2.00000          -0.451114          -12.27544
     57       2.00000          -0.448785          -12.21205
     58       2.00000          -0.447308          -12.17188
     59       2.00000          -0.446949          -12.16211
     60       2.00000          -0.441272          -12.00763
     61       0.00000          -0.139391           -3.79303
     62       0.00000          -0.079726           -2.16944
     63       0.00000          -0.077459           -2.10776
     64       0.00000          -0.028601           -0.77827
     65       0.00000          -0.015561           -0.42344
     66       0.00000           0.006900            0.18775
     67       0.00000           0.021612            0.58808
     68       0.00000           0.028586            0.77787
     69       0.00000           0.050895            1.38492
     70       0.00000           0.062372            1.69723
     71       0.00000           0.091380            2.48657
     72       0.00000           0.125973            3.42791
     73       0.00000           0.141367            3.84679
     74       0.00000           0.165998            4.51703
     75       0.00000           0.173263            4.71474
     76       0.00000           0.174556            4.74990
     77       0.00000           0.185654            5.05191
     78       0.00000           0.191847            5.22042
     79       0.00000           0.211261            5.74869
     80       0.00000           0.224126            6.09877
     81       0.00000           0.224530            6.10976
     82       0.00000           0.233551            6.35525
     83       0.00000           0.239516            6.51755
     84       0.00000           0.248417            6.75978
     85       0.00000           0.258399            7.03141
     86       0.00000           0.261723            7.12184
     87       0.00000           0.267698            7.28444
     88       0.00000           0.270243            7.35370
     89       0.00000           0.271155            7.37850
     90       0.00000           0.305179            8.30434
     91       0.00000           0.313027            8.51791
     92       0.00000           0.332348            9.04366
     93       0.00000           0.350736            9.54402
     94       0.00000           0.359468            9.78162
     95       0.00000           0.374891           10.20131
     96       0.00000           0.379721           10.33274

  Highest occupied state (VBM) at    -12.00762655 eV
  | Occupation number:      2.00000000

  Lowest unoccupied state (CBM) at    -3.79302574 eV
  | Occupation number:      0.00000000

  Overall HOMO-LUMO gap:      8.21460081 eV.
  Calculating total energy contributions from superposition of free atom densities.

  Total energy components:
  | Sum of eigenvalues            :        -887.80301810 Ha      -24158.34928588 eV
  | XC energy correction          :        -144.42348006 Ha       -3929.96284679 eV
  | XC potential correction       :         188.05230612 Ha        5117.16360794 eV
  | Free-atom electrostatic energy:        -781.17165940 Ha      -21256.76238437 eV
  | Hartree energy correction     :           0.00000000 Ha           0.00000000 eV
  | Entropy correction            :           0.00000000 Ha           0.00000000 eV
  | ---------------------------
  | Total energy                  :       -1625.34585144 Ha      -44227.91090910 eV
  | Total energy, T -> 0          :       -1625.34585144 Ha      -44227.91090910 eV  <-- do not rely on this value for anything but (periodic) metals
  | Electronic free energy        :       -1625.34585144 Ha      -44227.91090910 eV

  Derived energy quantities:
  | Kinetic energy                :        1627.81624259 Ha       44295.13367237 eV
  | Electrostatic energy          :       -3108.73861397 Ha      -84593.08173468 eV
  | Energy correction for multipole
  | error in Hartree potential    :           0.00000000 Ha           0.00000000 eV
  | Sum of eigenvalues per atom                           :       -2013.19577382 eV
  | Total energy (T->0) per atom                          :       -3685.65924242 eV  <-- do not rely on this value for anything but (periodic) metals
  | Electronic free energy per atom                       :       -3685.65924242 eV
  Initialize hartree_potential_storage
  Max. number of atoms included in rho_multipole:           12

  End scf initialization - timings             :  max(cpu_time)    wall_clock(cpu1)
  | Time for scf. initialization                :        0.125 s           0.125 s
  | Boundary condition initialization           :        0.000 s           0.000 s
  | Relaxation initialization                   :        0.002 s           0.002 s
  | Integration                                 :        0.048 s           0.048 s
  | Solution of K.-S. eqns.                     :        0.013 s           0.013 s
  | Grid partitioning                           :        0.038 s           0.037 s
  | Preloading free-atom quantities on grid     :        0.016 s           0.017 s
  | Free-atom superposition energy              :        0.005 s           0.005 s
  | Total energy evaluation                     :        0.000 s           0.000 s

  Partial memory accounting:
  | Current value for overall tracked memory usage:
  |   Minimum:        0.284 MB (on task 23)
  |   Maximum:        0.303 MB (on task  0)
  |   Average:        0.299 MB
  | Peak value for overall tracked memory usage:
  |   Minimum:        1.356 MB (on task 22 after allocating wave)
  |   Maximum:        1.440 MB (on task  8 after allocating wave)
  |   Average:        1.397 MB
  | Largest tracked array allocation so far:
  |   Minimum:        0.245 MB (H_times_psi on task  1)
  |   Maximum:        0.529 MB (all_coords on task 10)
  |   Average:        0.285 MB
  Note:  These values currently only include a subset of arrays which are explicitly tracked.
  The "true" memory usage will be greater.
------------------------------------------------------------
  Evaluating new KS density.
  Integration grid: deviation in total charge (<rho> - N_e) =   0.000000E+00

  Time for density update prior                :  max(cpu_time)    wall_clock(cpu1)
  | self-consistency iterative process          :        0.030 s           0.030 s

------------------------------------------------------------
          Begin self-consistency iteration #    1

  Date     :  20211214, Time     :  141716.288
------------------------------------------------------------
  Pulay mixing of updated and previous charge densities.
  Renormalizing the density to the exact electron count on the 3D integration grid.
  | Formal number of electrons (from input files) :     120.0000000000
  | Integrated number of electrons on 3D grid     :     120.0000000000
  | Charge integration error                      :      -0.0000000000
  | Normalization factor for density and gradient :       1.0000000000

  Evaluating partitioned Hartree potential by multipole expansion.
  | Original multipole sum: apparent total charge =  -0.691196E-14
  | Sum of charges compensated after spline to logarithmic grids =   0.734968E-04
  | Analytical far-field extrapolation by fixed multipoles:
  | Hartree multipole sum: apparent total charge =  -0.846162E-14
  Summing up the Hartree potential.
  Time summed over all CPUs for potential: real work        0.382 s, elapsed        0.391 s
  | RMS charge density error from multipole expansion :   0.111245E-01

  Integrating Hamiltonian matrix: batch-based integration.
  Time summed over all CPUs for integration: real work        0.716 s, elapsed        0.754 s

  Updating Kohn-Sham eigenvalues and eigenvectors using ELSI and the ELPA eigensolver.
  Starting ELPA eigensolver
  Finished transformation to standard eigenproblem
  | Time :     0.001 s
  Finished solving standard eigenproblem
  | Time :     0.003 s
  Finished back-transformation of eigenvectors
  | Time :     0.000 s

  Obtaining occupation numbers and chemical potential using ELSI.
  | Chemical potential (Fermi level):    -7.55444723 eV
  Writing Kohn-Sham eigenvalues.

  State    Occupation    Eigenvalue [Ha]    Eigenvalue [eV]
      1       2.00000         -55.669412        -1514.84177
      2       2.00000         -55.669411        -1514.84175
      3       2.00000         -55.627981        -1513.71438
      4       2.00000         -24.249648         -659.86650
      5       2.00000         -24.227742         -659.27041
      6       2.00000         -24.223543         -659.15614
      7       2.00000         -24.223537         -659.15599
      8       2.00000         -24.184371         -658.09021
      9       2.00000         -24.076314         -655.14985
     10       2.00000         -24.076314         -655.14984
     11       2.00000         -24.056907         -654.62175
     12       2.00000         -24.053007         -654.51562
     13       2.00000          -4.107505         -111.77089
     14       2.00000          -4.107378         -111.76745
     15       2.00000          -4.067440         -110.68068
     16       2.00000          -2.701361          -73.50776
     17       2.00000          -2.700275          -73.47822
     18       2.00000          -2.700257          -73.47772
     19       2.00000          -2.700132          -73.47433
     20       2.00000          -2.699438          -73.45544
     21       2.00000          -2.699322          -73.45229
     22       2.00000          -2.661376          -72.41974
     23       2.00000          -2.660345          -72.39166
     24       2.00000          -2.658437          -72.33976
     25       2.00000          -1.172665          -31.90984
     26       2.00000          -1.147566          -31.22685
     27       2.00000          -1.144947          -31.15561
     28       2.00000          -1.139518          -31.00787
     29       2.00000          -1.106901          -30.12032
     30       2.00000          -1.022671          -27.82829
     31       2.00000          -1.022386          -27.82053
     32       2.00000          -1.006187          -27.37975
     33       2.00000          -1.000426          -27.22297
     34       2.00000          -0.570078          -15.51262
     35       2.00000          -0.537278          -14.62008
     36       2.00000          -0.531262          -14.45637
     37       2.00000          -0.506271          -13.77633
     38       2.00000          -0.501179          -13.63778
     39       2.00000          -0.486587          -13.24072
     40       2.00000          -0.481485          -13.10187
     41       2.00000          -0.468896          -12.75932
     42       2.00000          -0.458938          -12.48835
     43       2.00000          -0.438715          -11.93805
     44       2.00000          -0.436819          -11.88645
     45       2.00000          -0.428430          -11.65816
     46       2.00000          -0.427750          -11.63968
     47       2.00000          -0.414581          -11.28132
     48       2.00000          -0.392361          -10.67669
     49       2.00000          -0.390403          -10.62341
     50       2.00000          -0.380221          -10.34633
     51       2.00000          -0.377297          -10.26678
     52       2.00000          -0.351431           -9.56293
     53       2.00000          -0.334072           -9.09055
     54       2.00000          -0.333832           -9.08402
     55       2.00000          -0.330420           -8.99119
     56       2.00000          -0.327648           -8.91577
     57       2.00000          -0.319197           -8.68578
     58       2.00000          -0.316180           -8.60370
     59       2.00000          -0.307729           -8.37373
     60       2.00000          -0.304102           -8.27502
     61       0.00000          -0.154532           -4.20502
     62       0.00000          -0.090393           -2.45972
     63       0.00000          -0.080059           -2.17850
     64       0.00000          -0.052988           -1.44187
     65       0.00000          -0.039879           -1.08515
     66       0.00000          -0.015715           -0.42763
     67       0.00000           0.015375            0.41838
     68       0.00000           0.025112            0.68333
     69       0.00000           0.037081            1.00904
     70       0.00000           0.056176            1.52862
     71       0.00000           0.092823            2.52586
     72       0.00000           0.105208            2.86286
     73       0.00000           0.144474            3.93133
     74       0.00000           0.151836            4.13167
     75       0.00000           0.156483            4.25812
     76       0.00000           0.166241            4.52366
     77       0.00000           0.175344            4.77135
     78       0.00000           0.200562            5.45756
     79       0.00000           0.210308            5.72276
     80       0.00000           0.211881            5.76559
     81       0.00000           0.219773            5.98032
     82       0.00000           0.222272            6.04834
     83       0.00000           0.222932            6.06629
     84       0.00000           0.227489            6.19028
     85       0.00000           0.241657            6.57583
     86       0.00000           0.251414            6.84132
     87       0.00000           0.253204            6.89002
     88       0.00000           0.263515            7.17061
     89       0.00000           0.269350            7.32940
     90       0.00000           0.291529            7.93292
     91       0.00000           0.317176            8.63079
     92       0.00000           0.327375            8.90832
     93       0.00000           0.363093            9.88026
     94       0.00000           0.363569            9.89321
     95       0.00000           0.373572           10.16541
     96       0.00000           0.379199           10.31852

  Highest occupied state (VBM) at     -8.27502490 eV
  | Occupation number:      2.00000000

  Lowest unoccupied state (CBM) at    -4.20502024 eV
  | Occupation number:      0.00000000

  Overall HOMO-LUMO gap:      4.07000466 eV.

  Total energy components:
  | Sum of eigenvalues            :        -883.43576810 Ha      -24039.51036689 eV
  | XC energy correction          :        -145.68584035 Ha       -3964.31341802 eV
  | XC potential correction       :         189.71136862 Ha        5162.30899549 eV
  | Free-atom electrostatic energy:        -781.17165940 Ha      -21256.76238437 eV
  | Hartree energy correction     :          -4.55988003 Ha        -124.08064870 eV
  | Entropy correction            :           0.00000000 Ha           0.00000000 eV
  | ---------------------------
  | Total energy                  :       -1625.14177926 Ha      -44222.35782250 eV
  | Total energy, T -> 0          :       -1625.14177926 Ha      -44222.35782250 eV  <-- do not rely on this value for anything but (periodic) metals
  | Electronic free energy        :       -1625.14177926 Ha      -44222.35782250 eV

  Derived energy quantities:
  | Kinetic energy                :        1633.80205575 Ha       44458.01593577 eV
  | Electrostatic energy          :       -3113.25799465 Ha      -84716.06034025 eV
  | Energy correction for multipole
  | error in Hartree potential    :           0.03104457 Ha           0.84476571 eV
  | Sum of eigenvalues per atom                           :       -2003.29253057 eV
  | Total energy (T->0) per atom                          :       -3685.19648521 eV  <-- do not rely on this value for anything but (periodic) metals
  | Electronic free energy per atom                       :       -3685.19648521 eV
  Evaluating new KS density.
  Integration grid: deviation in total charge (<rho> - N_e) =   0.000000E+00

  Self-consistency convergence accuracy:
  | Change of charge density      :  0.5842E+00
  | Change of sum of eigenvalues  :  0.1188E+03 eV
  | Change of total energy        :  0.5553E+01 eV


------------------------------------------------------------
  End self-consistency iteration #     1       :  max(cpu_time)    wall_clock(cpu1)
  | Time for this iteration                     :        0.084 s           0.085 s
  | Charge density update                       :        0.029 s           0.029 s
  | Density mixing                              :        0.000 s           0.001 s
  | Hartree multipole update                    :        0.001 s           0.001 s
  | Hartree multipole summation                 :        0.017 s           0.017 s
  | Integration                                 :        0.032 s           0.032 s
  | Solution of K.-S. eqns.                     :        0.004 s           0.004 s
  | Total energy evaluation                     :        0.000 s           0.000 s

  Partial memory accounting:
  | Current value for overall tracked memory usage:
  |   Minimum:        0.284 MB (on task 23)
  |   Maximum:        0.303 MB (on task  0)
  |   Average:        0.299 MB
  | Peak value for overall tracked memory usage:
  |   Minimum:        1.356 MB (on task 22 after allocating wave)
  |   Maximum:        1.440 MB (on task  8 after allocating wave)
  |   Average:        1.397 MB
  | Largest tracked array allocation so far:
  |   Minimum:        0.735 MB (gradient_basis_wave on task  1)
  |   Maximum:        0.780 MB (gradient_basis_wave on task  8)
  |   Average:        0.756 MB
  Note:  These values currently only include a subset of arrays which are explicitly tracked.
  The "true" memory usage will be greater.
------------------------------------------------------------

------------------------------------------------------------
          Begin self-consistency iteration #    2

  Date     :  20211214, Time     :  141716.378
------------------------------------------------------------
  Pulay mixing of updated and previous charge densities.
  Renormalizing the density to the exact electron count on the 3D integration grid.
  | Formal number of electrons (from input files) :     120.0000000000
  | Integrated number of electrons on 3D grid     :     120.0000000000
  | Charge integration error                      :       0.0000000000
  | Normalization factor for density and gradient :       1.0000000000

  Evaluating partitioned Hartree potential by multipole expansion.
  | Original multipole sum: apparent total charge =   0.160254E-13
  | Sum of charges compensated after spline to logarithmic grids =   0.335522E-04
  | Analytical far-field extrapolation by fixed multipoles:
  | Hartree multipole sum: apparent total charge =   0.158163E-13
  Summing up the Hartree potential.
  Time summed over all CPUs for potential: real work        0.380 s, elapsed        0.388 s
  | RMS charge density error from multipole expansion :   0.128870E-01

  Integrating Hamiltonian matrix: batch-based integration.
  Time summed over all CPUs for integration: real work        0.714 s, elapsed        0.754 s

  Updating Kohn-Sham eigenvalues and eigenvectors using ELSI and the ELPA eigensolver.
  Starting ELPA eigensolver
  Finished transformation to standard eigenproblem
  | Time :     0.000 s
  Finished solving standard eigenproblem
  | Time :     0.003 s
  Finished back-transformation of eigenvectors
  | Time :     0.000 s

  Obtaining occupation numbers and chemical potential using ELSI.
  | Chemical potential (Fermi level):    -7.76522407 eV
  Highest occupied state (VBM) at     -9.33496502 eV
  | Occupation number:      2.00000000

  Lowest unoccupied state (CBM) at    -4.39461429 eV
  | Occupation number:      0.00000000

  Overall HOMO-LUMO gap:      4.94035073 eV.

  Checking to see if s.c.f. parameters should be adjusted.

  Total energy components:
  | Sum of eigenvalues            :        -886.20119445 Ha      -24114.76144644 eV
  | XC energy correction          :        -145.22685972 Ha       -3951.82391969 eV
  | XC potential correction       :         189.10752966 Ha        5145.87770138 eV
  | Free-atom electrostatic energy:        -781.17165940 Ha      -21256.76238437 eV
  | Hartree energy correction     :          -1.59280955 Ha         -43.34255298 eV
  | Entropy correction            :           0.00000000 Ha           0.00000000 eV
  | ---------------------------
  | Total energy                  :       -1625.08499346 Ha      -44220.81260209 eV
  | Total energy, T -> 0          :       -1625.08499346 Ha      -44220.81260209 eV  <-- do not rely on this value for anything but (periodic) metals
  | Electronic free energy        :       -1625.08499346 Ha      -44220.81260209 eV

  Derived energy quantities:
  | Kinetic energy                :        1630.11297535 Ha       44357.63095062 eV
  | Electrostatic energy          :       -3109.97110908 Ha      -84626.61963302 eV
  | Energy correction for multipole
  | error in Hartree potential    :           0.03495908 Ha           0.95128487 eV
  | Sum of eigenvalues per atom                           :       -2009.56345387 eV
  | Total energy (T->0) per atom                          :       -3685.06771684 eV  <-- do not rely on this value for anything but (periodic) metals
  | Electronic free energy per atom                       :       -3685.06771684 eV
  Evaluating new KS density.
  Integration grid: deviation in total charge (<rho> - N_e) =  -2.842171E-14

  Self-consistency convergence accuracy:
  | Change of charge density      :  0.4487E+00
  | Change of sum of eigenvalues  : -0.7525E+02 eV
  | Change of total energy        :  0.1545E+01 eV


------------------------------------------------------------
  End self-consistency iteration #     2       :  max(cpu_time)    wall_clock(cpu1)
  | Time for this iteration                     :        0.086 s           0.085 s
  | Charge density update                       :        0.029 s           0.029 s
  | Density mixing                              :        0.003 s           0.002 s
  | Hartree multipole update                    :        0.001 s           0.001 s
  | Hartree multipole summation                 :        0.016 s           0.017 s
  | Integration                                 :        0.032 s           0.031 s
  | Solution of K.-S. eqns.                     :        0.004 s           0.005 s
  | Total energy evaluation                     :        0.000 s           0.000 s

  Partial memory accounting:
  | Current value for overall tracked memory usage:
  |   Minimum:        0.285 MB (on task 23)
  |   Maximum:        0.304 MB (on task  0)
  |   Average:        0.300 MB
  | Peak value for overall tracked memory usage:
  |   Minimum:        1.356 MB (on task 22 after allocating wave)
  |   Maximum:        1.440 MB (on task  8 after allocating wave)
  |   Average:        1.397 MB
  | Largest tracked array allocation so far:
  |   Minimum:        0.735 MB (gradient_basis_wave on task  1)
  |   Maximum:        0.780 MB (gradient_basis_wave on task  8)
  |   Average:        0.756 MB
  Note:  These values currently only include a subset of arrays which are explicitly tracked.
  The "true" memory usage will be greater.
------------------------------------------------------------

------------------------------------------------------------
          Begin self-consistency iteration #    3

  Date     :  20211214, Time     :  141716.466
------------------------------------------------------------
  Pulay mixing of updated and previous charge densities.
  Renormalizing the density to the exact electron count on the 3D integration grid.
  | Formal number of electrons (from input files) :     120.0000000000
  | Integrated number of electrons on 3D grid     :     120.0000000000
  | Charge integration error                      :       0.0000000000
  | Normalization factor for density and gradient :       1.0000000000

  Evaluating partitioned Hartree potential by multipole expansion.
  | Original multipole sum: apparent total charge =   0.870760E-13
  | Sum of charges compensated after spline to logarithmic grids =   0.384069E-04
  | Analytical far-field extrapolation by fixed multipoles:
  | Hartree multipole sum: apparent total charge =   0.897940E-13
  Summing up the Hartree potential.
  Time summed over all CPUs for potential: real work        0.380 s, elapsed        0.388 s
  | RMS charge density error from multipole expansion :   0.173131E-01

  Integrating Hamiltonian matrix: batch-based integration.
  Time summed over all CPUs for integration: real work        0.715 s, elapsed        0.750 s

  Updating Kohn-Sham eigenvalues and eigenvectors using ELSI and the ELPA eigensolver.
  Starting ELPA eigensolver
  Finished transformation to standard eigenproblem
  | Time :     0.001 s
  Finished solving standard eigenproblem
  | Time :     0.003 s
  Finished back-transformation of eigenvectors
  | Time :     0.000 s

  Obtaining occupation numbers and chemical potential using ELSI.
  | Chemical potential (Fermi level):    -7.76286082 eV
  Highest occupied state (VBM) at     -9.03344393 eV
  | Occupation number:      2.00000000

  Lowest unoccupied state (CBM) at    -4.59173905 eV
  | Occupation number:      0.00000000

  Overall HOMO-LUMO gap:      4.44170488 eV.

  Total energy components:
  | Sum of eigenvalues            :        -887.14408804 Ha      -24140.41888662 eV
  | XC energy correction          :        -145.19219393 Ha       -3950.88061553 eV
  | XC potential correction       :         189.06077933 Ha        5144.60556031 eV
  | Free-atom electrostatic energy:        -781.17165940 Ha      -21256.76238437 eV
  | Hartree energy correction     :          -0.63714392 Ha         -17.33756824 eV
  | Entropy correction            :           0.00000000 Ha           0.00000000 eV
  | ---------------------------
  | Total energy                  :       -1625.08430596 Ha      -44220.79389446 eV
  | Total energy, T -> 0          :       -1625.08430596 Ha      -44220.79389446 eV  <-- do not rely on this value for anything but (periodic) metals
  | Electronic free energy        :       -1625.08430596 Ha      -44220.79389446 eV

  Derived energy quantities:
  | Kinetic energy                :        1628.48822105 Ha       44313.41913661 eV
  | Electrostatic energy          :       -3108.38033308 Ha      -84583.33241554 eV
  | Energy correction for multipole
  | error in Hartree potential    :           0.04710236 Ha           1.28172031 eV
  | Sum of eigenvalues per atom                           :       -2011.70157389 eV
  | Total energy (T->0) per atom                          :       -3685.06615787 eV  <-- do not rely on this value for anything but (periodic) metals
  | Electronic free energy per atom                       :       -3685.06615787 eV
  Evaluating new KS density.
  Integration grid: deviation in total charge (<rho> - N_e) =   1.421085E-14

  Self-consistency convergence accuracy:
  | Change of charge density      :  0.1207E+00
  | Change of sum of eigenvalues  : -0.2566E+02 eV
  | Change of total energy        :  0.1871E-01 eV


------------------------------------------------------------
  End self-consistency iteration #     3       :  max(cpu_time)    wall_clock(cpu1)
  | Time for this iteration                     :        0.086 s           0.086 s
  | Charge density update                       :        0.029 s           0.028 s
  | Density mixing                              :        0.004 s           0.004 s
  | Hartree multipole update                    :        0.001 s           0.001 s
  | Hartree multipole summation                 :        0.016 s           0.017 s
  | Integration                                 :        0.032 s           0.031 s
  | Solution of K.-S. eqns.                     :        0.004 s           0.004 s
  | Total energy evaluation                     :        0.000 s           0.000 s

  Partial memory accounting:
  | Current value for overall tracked memory usage:
  |   Minimum:        0.285 MB (on task 23)
  |   Maximum:        0.304 MB (on task  0)
  |   Average:        0.300 MB
  | Peak value for overall tracked memory usage:
  |   Minimum:        1.356 MB (on task 22 after allocating wave)
  |   Maximum:        1.440 MB (on task  8 after allocating wave)
  |   Average:        1.397 MB
  | Largest tracked array allocation so far:
  |   Minimum:        0.735 MB (gradient_basis_wave on task  1)
  |   Maximum:        0.780 MB (gradient_basis_wave on task  8)
  |   Average:        0.756 MB
  Note:  These values currently only include a subset of arrays which are explicitly tracked.
  The "true" memory usage will be greater.
------------------------------------------------------------

------------------------------------------------------------
          Begin self-consistency iteration #    4

  Date     :  20211214, Time     :  141716.558
------------------------------------------------------------
  Pulay mixing of updated and previous charge densities.
  Renormalizing the density to the exact electron count on the 3D integration grid.
  | Formal number of electrons (from input files) :     120.0000000000
  | Integrated number of electrons on 3D grid     :     120.0000000000
  | Charge integration error                      :      -0.0000000000
  | Normalization factor for density and gradient :       1.0000000000

  Evaluating partitioned Hartree potential by multipole expansion.
  | Original multipole sum: apparent total charge =   0.537461E-14
  | Sum of charges compensated after spline to logarithmic grids =   0.402476E-04
  | Analytical far-field extrapolation by fixed multipoles:
  | Hartree multipole sum: apparent total charge =   0.653070E-14
  Summing up the Hartree potential.
  Time summed over all CPUs for potential: real work        0.380 s, elapsed        0.388 s
  | RMS charge density error from multipole expansion :   0.194132E-01

  Integrating Hamiltonian matrix: batch-based integration.
  Time summed over all CPUs for integration: real work        0.714 s, elapsed        0.750 s

  Updating Kohn-Sham eigenvalues and eigenvectors using ELSI and the ELPA eigensolver.
  Starting ELPA eigensolver
  Finished transformation to standard eigenproblem
  | Time :     0.000 s
  Finished solving standard eigenproblem
  | Time :     0.003 s
  Finished back-transformation of eigenvectors
  | Time :     0.000 s

  Obtaining occupation numbers and chemical potential using ELSI.
  | Chemical potential (Fermi level):    -7.74015441 eV
  Highest occupied state (VBM) at     -9.05590155 eV
  | Occupation number:      2.00000000

  Lowest unoccupied state (CBM) at    -4.55778034 eV
  | Occupation number:      0.00000000

  Overall HOMO-LUMO gap:      4.49812121 eV.

  Total energy components:
  | Sum of eigenvalues            :        -887.26714866 Ha      -24143.76753649 eV
  | XC energy correction          :        -145.17739632 Ha       -3950.47795210 eV
  | XC potential correction       :         189.04066038 Ha        5144.05809574 eV
  | Free-atom electrostatic energy:        -781.17165940 Ha      -21256.76238437 eV
  | Hartree energy correction     :          -0.50674518 Ha         -13.78923791 eV
  | Entropy correction            :           0.00000000 Ha           0.00000000 eV
  | ---------------------------
  | Total energy                  :       -1625.08228918 Ha      -44220.73901512 eV
  | Total energy, T -> 0          :       -1625.08228918 Ha      -44220.73901512 eV  <-- do not rely on this value for anything but (periodic) metals
  | Electronic free energy        :       -1625.08228918 Ha      -44220.73901512 eV

  Derived energy quantities:
  | Kinetic energy                :        1627.82315149 Ha       44295.32167333 eV
  | Electrostatic energy          :       -3107.72804435 Ha      -84565.58273635 eV
  | Energy correction for multipole
  | error in Hartree potential    :           0.05225664 Ha           1.42197546 eV
  | Sum of eigenvalues per atom                           :       -2011.98062804 eV
  | Total energy (T->0) per atom                          :       -3685.06158459 eV  <-- do not rely on this value for anything but (periodic) metals
  | Electronic free energy per atom                       :       -3685.06158459 eV
  Evaluating new KS density.
  Integration grid: deviation in total charge (<rho> - N_e) =   1.421085E-14

  Self-consistency convergence accuracy:
  | Change of charge density      :  0.8068E-01
  | Change of sum of eigenvalues  : -0.3349E+01 eV
  | Change of total energy        :  0.5488E-01 eV


------------------------------------------------------------
  End self-consistency iteration #     4       :  max(cpu_time)    wall_clock(cpu1)
  | Time for this iteration                     :        0.087 s           0.085 s
  | Charge density update                       :        0.029 s           0.029 s
  | Density mixing                              :        0.004 s           0.001 s
  | Hartree multipole update                    :        0.001 s           0.002 s
  | Hartree multipole summation                 :        0.016 s           0.016 s
  | Integration                                 :        0.032 s           0.032 s
  | Solution of K.-S. eqns.                     :        0.004 s           0.004 s
  | Total energy evaluation                     :        0.000 s           0.000 s

  Partial memory accounting:
  | Current value for overall tracked memory usage:
  |   Minimum:        0.285 MB (on task 23)
  |   Maximum:        0.304 MB (on task  0)
  |   Average:        0.300 MB
  | Peak value for overall tracked memory usage:
  |   Minimum:        1.356 MB (on task 22 after allocating wave)
  |   Maximum:        1.440 MB (on task  8 after allocating wave)
  |   Average:        1.397 MB
  | Largest tracked array allocation so far:
  |   Minimum:        0.735 MB (gradient_basis_wave on task  1)
  |   Maximum:        0.780 MB (gradient_basis_wave on task  8)
  |   Average:        0.756 MB
  Note:  These values currently only include a subset of arrays which are explicitly tracked.
  The "true" memory usage will be greater.
------------------------------------------------------------

------------------------------------------------------------
          Begin self-consistency iteration #    5

  Date     :  20211214, Time     :  141716.648
------------------------------------------------------------
  Pulay mixing of updated and previous charge densities.
  Renormalizing the density to the exact electron count on the 3D integration grid.
  | Formal number of electrons (from input files) :     120.0000000000
  | Integrated number of electrons on 3D grid     :     120.0000000000
  | Charge integration error                      :       0.0000000000
  | Normalization factor for density and gradient :       1.0000000000

  Evaluating partitioned Hartree potential by multipole expansion.
  | Original multipole sum: apparent total charge =   0.177227E-13
  | Sum of charges compensated after spline to logarithmic grids =   0.411387E-04
  | Analytical far-field extrapolation by fixed multipoles:
  | Hartree multipole sum: apparent total charge =   0.207851E-13
  Summing up the Hartree potential.
  Time summed over all CPUs for potential: real work        0.380 s, elapsed        0.388 s
[...]
   Ionic forces                  :  0.000000E+00  0.000000E+00  0.000000E+00
   Multipole                     :  0.463303E+00  0.197284E+00  0.458708E+00
   Hartree pot. SCF incomplete   : -0.492206E-05  0.127691E-04  0.861463E-06
   Pulay + GGA                   : -0.477619E+00 -0.175042E+01 -0.761667E+00
   ----------------------------------------------------------------
   Total forces(  12)            : -0.367936E-03  0.327729E-03 -0.511044E-03


  Self-consistency convergence accuracy:
  | Change of charge density      :  0.3943E-06
  | Change of sum of eigenvalues  :  0.2917E-04 eV
  | Change of total energy        :  0.9924E-08 eV
  | Change of forces              :  0.3198E-05 eV/A

  Writing Kohn-Sham eigenvalues.

  State    Occupation    Eigenvalue [Ha]    Eigenvalue [eV]
      1       2.00000         -55.599394        -1512.93649
      2       2.00000         -55.599368        -1512.93578
      3       2.00000         -55.554770        -1511.72221
      4       2.00000         -24.278371         -660.64808
      5       2.00000         -24.278265         -660.64521
      6       2.00000         -24.272294         -660.48273
      7       2.00000         -24.272274         -660.48218
      8       2.00000         -24.247076         -659.79651
      9       2.00000         -24.220678         -659.07819
     10       2.00000         -24.220654         -659.07753
     11       2.00000         -24.191245         -658.27728
     12       2.00000         -24.191228         -658.27681
     13       2.00000          -4.059044         -110.45221
     14       2.00000          -4.058908         -110.44851
     15       2.00000          -4.018200         -109.34078
     16       2.00000          -2.652305          -72.17290
     17       2.00000          -2.652157          -72.16888
     18       2.00000          -2.650602          -72.12655
     19       2.00000          -2.649697          -72.10192
     20       2.00000          -2.649354          -72.09259
     21       2.00000          -2.648921          -72.08080
     22       2.00000          -2.610835          -71.04443
     23       2.00000          -2.610751          -71.04215
     24       2.00000          -2.607006          -70.94025
     25       2.00000          -1.185166          -32.25002
     26       2.00000          -1.152144          -31.35144
     27       2.00000          -1.151066          -31.32211
     28       2.00000          -1.147808          -31.23345
     29       2.00000          -1.115850          -30.36381
     30       2.00000          -1.091500          -29.70122
     31       2.00000          -1.090802          -29.68222
     32       2.00000          -1.064537          -28.96753
     33       2.00000          -1.058396          -28.80043
     34       2.00000          -0.564556          -15.36234
     35       2.00000          -0.554164          -15.07956
     36       2.00000          -0.537142          -14.61638
     37       2.00000          -0.515506          -14.02764
     38       2.00000          -0.509933          -13.87600
     39       2.00000          -0.501195          -13.63822
     40       2.00000          -0.488622          -13.29607
     41       2.00000          -0.473000          -12.87097
     42       2.00000          -0.466623          -12.69747
     43       2.00000          -0.444891          -12.10609
     44       2.00000          -0.439495          -11.95928
     45       2.00000          -0.432271          -11.76270
     46       2.00000          -0.432151          -11.75944
     47       2.00000          -0.432143          -11.75920
     48       2.00000          -0.430664          -11.71896
     49       2.00000          -0.421752          -11.47644
     50       2.00000          -0.406330          -11.05680
     51       2.00000          -0.399247          -10.86407
     52       2.00000          -0.394911          -10.74608
     53       2.00000          -0.392928          -10.69211
     54       2.00000          -0.389744          -10.60546
     55       2.00000          -0.389130          -10.58878
     56       2.00000          -0.385142          -10.48024
     57       2.00000          -0.370339          -10.07743
     58       2.00000          -0.365827           -9.95467
     59       2.00000          -0.358119           -9.74492
     60       2.00000          -0.354212           -9.63861
     61       0.00000          -0.105815           -2.87938
     62       0.00000          -0.045399           -1.23537
     63       0.00000          -0.033589           -0.91401
     64       0.00000          -0.018978           -0.51643
     65       0.00000           0.018140            0.49360
     66       0.00000           0.039071            1.06317
     67       0.00000           0.048761            1.32685
     68       0.00000           0.065123            1.77208
     69       0.00000           0.082911            2.25613
     70       0.00000           0.090122            2.45234
     71       0.00000           0.113293            3.08287
     72       0.00000           0.143786            3.91260
     73       0.00000           0.157349            4.28169
     74       0.00000           0.176073            4.79119
     75       0.00000           0.176259            4.79625
     76       0.00000           0.181646            4.94284
     77       0.00000           0.208815            5.68215
     78       0.00000           0.217786            5.92627
     79       0.00000           0.226906            6.17444
     80       0.00000           0.228897            6.22860
     81       0.00000           0.232409            6.32417
     82       0.00000           0.239177            6.50833
     83       0.00000           0.246373            6.70416
     84       0.00000           0.257551            7.00833
     85       0.00000           0.261955            7.12816
     86       0.00000           0.270903            7.37165
     87       0.00000           0.278483            7.57792
     88       0.00000           0.287713            7.82906
     89       0.00000           0.287768            7.83056
     90       0.00000           0.317467            8.63872
     91       0.00000           0.344888            9.38487
     92       0.00000           0.347932            9.46771
     93       0.00000           0.374489           10.19037
     94       0.00000           0.376049           10.23281
     95       0.00000           0.396560           10.79096
     96       0.00000           0.400910           10.90931

  Highest occupied state (VBM) at     -9.63861157 eV
  | Occupation number:      2.00000000

  Lowest unoccupied state (CBM) at    -2.87938321 eV
  | Occupation number:      0.00000000

  Overall HOMO-LUMO gap:      6.75922837 eV.
  | Chemical Potential                          :    -6.94826095 eV

  Self-consistency cycle converged.


------------------------------------------------------------
  End self-consistency iteration #     6       :  max(cpu_time)    wall_clock(cpu1)
  | Time for this iteration                     :        0.275 s           0.272 s
  | Charge density & force component update     :        0.153 s           0.152 s
  | Density mixing                              :        0.004 s           0.001 s
  | Hartree multipole update                    :        0.001 s           0.001 s
  | Hartree multipole summation                 :        0.048 s           0.048 s
  | Hartree pot. SCF incomplete forces          :        0.032 s           0.032 s
  | Integration                                 :        0.032 s           0.032 s
  | Solution of K.-S. eqns.                     :        0.004 s           0.004 s
  | Total energy evaluation                     :        0.000 s           0.001 s

  Partial memory accounting:
  | Current value for overall tracked memory usage:
  |   Minimum:        0.291 MB (on task 23)
  |   Maximum:        0.316 MB (on task  0)
  |   Average:        0.310 MB
  | Peak value for overall tracked memory usage:
  |   Minimum:        3.111 MB (on task 22 after allocating hessian_basis_wave)
  |   Maximum:        3.187 MB (on task  6 after allocating hessian_basis_wave)
  |   Average:        3.159 MB
  | Largest tracked array allocation so far:
  |   Minimum:        1.524 MB (hessian_basis_wave on task  4)
  |   Maximum:        1.560 MB (hessian_basis_wave on task  6)
  |   Average:        1.547 MB
  Note:  These values currently only include a subset of arrays which are explicitly tracked.
  The "true" memory usage will be greater.
------------------------------------------------------------
  Removing unitary transformations (pure translations, rotations) from forces on atoms.
  Atomic forces before filtering:
  | Net force on center of mass :  -0.324005E-02  0.283341E-02 -0.418544E-03 eV/A
  | Net torque on center of mass:  -0.331836E-02  0.176822E-02  0.436240E-02 eV
  Atomic forces after filtering:
  | Net force on center of mass :   0.740455E-18 -0.115424E-17  0.871124E-19 eV/A
  | Net torque on center of mass:   0.587748E-18  0.239709E-17 -0.138294E-18 eV

  Energy and forces in a compact form:
  | Total energy uncorrected      :         -0.442227136273220E+05 eV
  | Total energy corrected        :         -0.442227136273220E+05 eV  <-- do not rely on this value for anything but (periodic) metals
  | Electronic free energy        :         -0.442227136273220E+05 eV
  Total atomic forces (unitary forces cleaned) [eV/Ang]:
  |    1          0.304629180719471E-03          0.333747318943795E-03          0.200777242213222E-03
  |    2         -0.131515315421046E-04          0.288394567619855E-03          0.309513515251664E-03
  |    3          0.287008092145953E-03         -0.201176009557086E-03         -0.226590115927509E-03
  |    4         -0.752944069832840E-04         -0.111629928772876E-03         -0.170921054841173E-03
  |    5         -0.139159905133094E-03          0.407286100120720E-04         -0.399345347745273E-04
  |    6         -0.245156814872413E-03         -0.337366354120329E-04          0.115328357989960E-03
  |    7         -0.243060823486383E-04          0.155083650232280E-03          0.102048574196366E-03
  |    8         -0.461334564430664E-04         -0.211861720410820E-03          0.236317726292250E-03
  |    9          0.304320263007574E-03         -0.161025834410802E-03          0.367419438731993E-05
  |   10         -0.663102852779715E-04          0.498934225704274E-04          0.525074536515952E-04
  |   11         -0.814428854242549E-04         -0.580098337203106E-04         -0.127493646673144E-03
  |   12         -0.205002167848171E-03         -0.904076070945025E-04         -0.455227711766024E-03

  ------------------------------------ 
  Start decomposition of the XC Energy 
  ------------------------------------ 
  X and C from original XC functional choice 
  Hartree-Fock Energy :          0.000000000 Ha              0.000000000 eV
  X Energy            :       -140.586287526 Ha          -3825.547525286 eV
  C Energy            :         -4.989741083 Ha           -135.777763158 eV
  Total XC Energy     :       -145.576028608 Ha          -3961.325288445 eV
  ------------------------------------ 
  LDA X and C from self-consistent density 
  X Energy LDA        :       -133.202322866 Ha          -3624.619623797 eV
  C Energy LDA        :         -8.850812534 Ha           -240.842862998 eV
  ------------------------------------ 
  End decomposition of the XC Energy 
  ------------------------------------ 

------------------------------------------------------------
  Relaxation / MD: End force evaluation.       :  max(cpu_time)    wall_clock(cpu1)
  | Time for this force evaluation              :        0.992 s           1.026 s

------------------------------------------------------------
  Geometry optimization: Attempting to predict improved coordinates.

  Removing unitary transformations (pure translations, rotations) from forces on atoms.
  Atomic forces before filtering:
  | Net force on center of mass :   0.740455E-18 -0.115424E-17  0.871124E-19 eV/A
  | Net torque on center of mass:   0.587748E-18  0.239709E-17 -0.138294E-18 eV
  Atomic forces after filtering:
  | Net force on center of mass :   0.130669E-18 -0.435562E-19  0.000000E+00 eV/A
  | Net torque on center of mass:   0.806713E-19 -0.184392E-18  0.414881E-18 eV
  Net remaining forces (excluding translations, rotations) in present geometry:
  || Forces on atoms   || =   0.455228E-03 eV/A.
  Maximum force component is  0.455228E-03 eV/A.
  Present geometry is converged.

------------------------------------------------------------
  Final atomic structure:
                         x [A]             y [A]             z [A]
            atom        -1.69685862        2.66412512       -1.20767524  Al
            atom        -0.53997865       -0.02557887       -2.35680207  Al
            atom        -2.20649647       -0.36464044       -0.52800179  Al
            atom        -0.69666255        3.45536045       -0.14960779  F
            atom        -2.86467221        3.38277022       -2.13800852  F
            atom        -1.21028371       -1.60340145       -1.55512207  F
            atom        -2.58797442        1.40998190       -0.19161550  F
            atom        -3.13932950       -1.21744170        0.52275105  F
            atom         0.53994676       -0.46843116       -3.51404975  F
            atom        -0.57435756        1.81976746       -2.40153648  F
            atom        -2.38982218        0.20812631       -2.29409046  F
            atom        -0.45845189        0.28849415       -0.51925637  F
------------------------------------------------------------

------------------------------------------------------------------------------
  Final output of selected total energy values:

  The following output summarizes some interesting total energy values
  at the end of a run (AFTER all relaxation, molecular dynamics, etc.).

  | Total energy of the DFT / Hartree-Fock s.c.f. calculation      :         -44222.713627322 eV
  | Final zero-broadening corrected energy (caution - metals only) :         -44222.713627322 eV
  | For reference only, the value of 1 Hartree used in FHI-aims is :             27.211384500 eV

  Before relying on these values, please be sure to understand exactly which
  total energy value is referred to by a given number. Different objects may
  all carry the same name 'total energy'. Definitions:

  Total energy of the DFT / Hartree-Fock s.c.f. calculation:
  | Note that this energy does not include ANY quantities calculated after the
  | s.c.f. cycle, in particular not ANY RPA, MP2, etc. many-body perturbation terms.

  Final zero-broadening corrected energy:
  | For metallic systems only, a broadening of the occupation numbers at the Fermi
  | level can be extrapolated back to zero broadening by an electron-gas inspired
  | formula. For all systems that are not real metals, this value can be
  | meaningless and should be avoided.

------------------------------------------------------------------------------
  Methods described in the following list of references were used in this FHI-aims run.
  If you publish the results, please make sure to cite these reference if they apply.
  FHI-aims is an academic code, and for our developers (often, Ph.D. students
  and postdocs), scientific credit in the community is essential.
  Thank you for helping us!

  For any use of FHI-aims, please cite:

    Volker Blum, Ralf Gehrke, Felix Hanke, Paula Havu, Ville Havu,
    Xinguo Ren, Karsten Reuter, and Matthias Scheffler
    'Ab initio molecular simulations with numeric atom-centered orbitals'
    Computer Physics Communications 180, 2175-2196 (2009)
    http://dx.doi.org/10.1016/j.cpc.2009.06.022


  The ELSI infrastructure was used in your run to solve the Kohn-Sham electronic structure.
  Please check out http://elsi-interchange.org to learn more.
  If scalability is important for your project, please acknowledge ELSI by citing:

    V. W-z. Yu, F. Corsetti, A. Garcia, W. P. Huhn, M. Jacquelin, W. Jia,
    B. Lange, L. Lin, J. Lu, W. Mi, A. Seifitokaldani, A. Vazquez-Mayagoitia,
    C. Yang, H. Yang, and V. Blum
    'ELSI: A unified software interface for Kohn-Sham electronic structure solvers'
    Computer Physics Communications 222, 267-285 (2018).
    http://dx.doi.org/10.1016/j.cpc.2017.09.007


  For the real-space grid partitioning and parallelization used in this calculation, please cite:

    Ville Havu, Volker Blum, Paula Havu, and Matthias Scheffler,
    'Efficient O(N) integration for all-electron electronic structure calculation'
    'using numerically tabulated basis functions'
    Journal of Computational Physics 228, 8367-8379 (2009).
    http://dx.doi.org/10.1016/j.jcp.2009.08.008

  Of course, there are many other important community references, e.g., those cited in the
  above references. Our list is limited to references that describe implementations in the
  FHI-aims code. The reason is purely practical (length of this list) - please credit others as well.

------------------------------------------------------------
          Leaving FHI-aims.
          Date     :  20211214, Time     :  141746.809

          Computational steps:
          | Number of self-consistency cycles          :          193
          | Number of SCF (re)initializations          :           20
          | Number of relaxation steps                 :           19

          Detailed time accounting                     :  max(cpu_time)    wall_clock(cpu1)
          | Total time                                  :       29.836 s          30.909 s
          | Preparation time                            :        0.184 s           0.185 s
          | Boundary condition initalization            :        0.001 s           0.004 s
          | Grid partitioning                           :        0.752 s           0.752 s
          | Preloading free-atom quantities on grid     :        0.309 s           0.311 s
          | Free-atom superposition energy              :        0.102 s           0.101 s
          | Total time for integrations                 :        6.707 s           6.728 s
          | Total time for solution of K.-S. equations  :        1.684 s           1.694 s
          | Total time for EV reorthonormalization      :        0.204 s           0.204 s
          | Total time for density & force components   :       11.231 s          11.232 s
          | Total time for mixing                       :        0.865 s           0.427 s
          | Total time for Hartree multipole update     :        0.382 s           0.395 s
          | Total time for Hartree multipole sum        :        4.515 s           4.515 s
          | Total time for total energy evaluation      :        0.040 s           0.047 s
          | Total time NSC force correction             :        1.272 s           1.294 s
          | Total time for scaled ZORA corrections      :        0.000 s           0.000 s

          Partial memory accounting:
          | Residual value for overall tracked memory usage across tasks:     0.000000 MB (should be 0.000000 MB)
          | Peak values for overall tracked memory usage:
          |   Minimum:        3.111 MB (on task 22 after allocating hessian_basis_wave)
          |   Maximum:        3.187 MB (on task  6 after allocating hessian_basis_wave)
          |   Average:        3.159 MB
          | Largest tracked array allocation:
          |   Minimum:        1.524 MB (hessian_basis_wave on task  4)
          |   Maximum:        1.560 MB (hessian_basis_wave on task  6)
          |   Average:        1.547 MB
          Note:  These values currently only include a subset of arrays which are explicitly tracked.
          The "true" memory usage will be greater.

          Have a nice day.
------------------------------------------------------------
