12
Lattice="0.0 0.0 0.0 0.0 0.0 0.0 0.0 0.0 0.0" Properties=species:S:1:pos:R:3:forces:R:3 energy=-44227.91090910 pbc="F F F"
Al		-1.69685862		2.66412512		-1.20767524		0.00030463		0.00033375		0.00020078
Al		-0.53997865		-0.02557887		-2.35680207		-1.315e-05		0.00028839		0.00030951
Al		-2.20649647		-0.36464044		-0.52800179		0.00028701		-0.00020118		-0.00022659
F		-0.69666255		3.45536045		-0.14960779		-7.529e-05		-0.00011163		-0.00017092
F		-2.86467221		3.38277022		-2.13800852		-0.00013916		4.073e-05		-3.993e-05
F		-1.21028371		-1.60340145		-1.55512207		-0.00024516		-3.374e-05		0.00011533
F		-2.58797442		1.40998190		-0.19161550		-2.431e-05		0.00015508		0.00010205
F		-3.13932950		-1.21744170		0.52275105		-4.613e-05		-0.00021186		0.00023632
F		0.53994676		-0.46843116		-3.51404975		0.00030432		-0.00016103		3.67e-06
F		-0.57435756		1.81976746		-2.40153648		-6.631e-05		4.989e-05		5.251e-05
F		-2.38982218		0.20812631		-2.29409046		-8.144e-05		-5.801e-05		-0.00012749
F		-0.45845189		0.28849415		-0.51925637		-0.000205		-9.041e-05		-0.00045523
12
Lattice="0.0 0.0 0.0 0.0 0.0 0.0 0.0 0.0 0.0" Properties=species:S:1:pos:R:3:forces:R:3 energy=-44222.35782250 pbc="F F F"
Al		-1.69682482		2.66402839		-1.20766163		0.00074624		0.00086799		0.00062736
Al		-0.53995665		-0.02557035		-2.35681492		-0.00071991		3.698e-05		0.00098336
Al		-2.20651229		-0.36462028		-0.52797546		0.00100447		-0.00028169		-0.00105779
F		-0.69668342		3.45530211		-0.14957054		5.828e-05		-0.00027315		-0.00011799
F		-2.86455836		3.38278118		-2.13796393		-0.00079637		0.0002818		-0.00056746
F		-1.21013313		-1.60339807		-1.55500037		-0.00052368		0.00030452		5.83e-06
F		-2.58805115		1.40996823		-0.19164208		-0.00019174		0.00016012		0.00025322
F		-3.13939470		-1.21739451		0.52271940		-0.00036126		-0.00065768		0.00067378
F		0.53984638		-0.46838413		-3.51416110		0.0007961		-0.00042335		-0.00035969
F		-0.57435768		1.81975327		-2.40158169		9.14e-06		9.606e-05		-9.504e-05
F		-2.38980679		0.20804779		-2.29409198		-7.527e-05		-0.0001239		-0.00013406
F		-0.45850839		0.28861838		-0.51927070		5.399e-05		1.231e-05		-0.00021153
12
Lattice="0.0 0.0 0.0 0.0 0.0 0.0 0.0 0.0 0.0" Properties=species:S:1:pos:R:3:forces:R:3 energy=-44220.81260209 pbc="F F F"
Al		-1.69668753		2.66401799		-1.20754168		0.00150506		0.00229646		0.00147911
Al		-0.53996886		-0.02559221		-2.35686444		-0.00124962		-0.00047407		0.00068842
Al		-2.20657019		-0.36462202		-0.52799281		0.00095084		-0.00085507		-0.00166856
F		-0.69610711		3.45439998		-0.14908550		-0.0010265		-0.00169916		-0.00146009
F		-2.86405755		3.38394768		-2.13738990		-0.000959		0.00023954		-0.00066374
F		-1.20916696		-1.60342280		-1.55414172		-0.00096446		0.0012349		-0.00012033
F		-2.58890148		1.40995094		-0.19241101		1.402e-05		-5.882e-05		0.00037544
F		-3.13932101		-1.21744159		0.52280117		-7.867e-05		-0.00034209		0.00050493
F		0.53984926		-0.46844110		-3.51420488		0.0006412		-0.00016689		0.00012716
F		-0.57514497		1.81972669		-2.40231790		0.00010752		-0.00015092		0.00010546
F		-2.38994024		0.20696080		-2.29442069		0.00048704		-0.00012624		0.00034542
F		-0.45892436		0.28964764		-0.51944565		0.00057259		0.00010234		0.0002868
12
Lattice="0.0 0.0 0.0 0.0 0.0 0.0 0.0 0.0 0.0" Properties=species:S:1:pos:R:3:forces:R:3 energy=-44220.79389446 pbc="F F F"
Al		-1.69661500		2.66416538		-1.20744998		0.00175017		0.00080967		0.00121231
Al		-0.53994239		-0.02572260		-2.35677866		0.00039927		-0.00019798		-0.00333687
Al		-2.20648857		-0.36469655		-0.52800973		-0.00250507		-0.00189796		0.00040325
F		-0.69638460		3.45485974		-0.14902879		0.00109847		-0.00167196		0.00033605
F		-2.86364726		3.38467301		-2.13709243		-0.00344326		0.00067579		-0.00273247
F		-1.20888883		-1.60323789		-1.55387170		0.00014616		-0.00447707		-0.00010608
F		-2.58895915		1.40990052		-0.19272792		-0.00072258		0.00031954		0.001245
F		-3.13926234		-1.21784133		0.52261951		0.00117865		0.0015152		-0.00060312
F		0.53957095		-0.46886836		-3.51440336		-0.00055079		0.00116089		0.00202555
F		-0.57535299		1.81960419		-2.40228057		0.00063517		0.00051041		-0.00048127
F		-2.38986277		0.20645530		-2.29444108		-0.00156586		0.0019013		-0.00127186
F		-0.45910804		0.28984060		-0.51955029		0.00357966		0.00135216		0.00330951
12
Lattice="0.0 0.0 0.0 0.0 0.0 0.0 0.0 0.0 0.0" Properties=species:S:1:pos:R:3:forces:R:3 energy=-44220.73901512 pbc="F F F"
Al		-1.69669499		2.66506636		-1.20735820		0.00440757		0.00169391		0.00349858
Al		-0.54006534		-0.02626168		-2.35655331		0.00625875		0.00443396		-0.00990037
Al		-2.20622579		-0.36510754		-0.52827118		-0.00874923		-0.00011791		0.00788522
F		-0.69626694		3.45540822		-0.14852142		-0.00219562		-0.00537479		-0.00354805
F		-2.86326199		3.38706129		-2.13660468		-0.00167751		-0.00184343		-0.00138138
F		-1.20798573		-1.60347368		-1.55310952		0.0010886		-0.00828998		3.822e-05
F		-2.58907606		1.40990216		-0.19377749		-0.00135809		-0.00040931		0.00060114
F		-3.13910403		-1.21847772		0.52233127		0.00379321		0.00512739		-0.00330278
F		0.53917947		-0.46954144		-3.51460433		-0.00336804		0.00354917		0.00572196
F		-0.57626629		1.81939539		-2.40222154		-0.00016865		-0.00028761		-0.00098798
F		-2.39006579		0.20486305		-2.29489852		-0.00066387		0.00271577		-0.00061403
F		-0.45910752		0.29029760		-0.51942609		0.00263286		-0.00119718		0.00198946
12
Lattice="0.0 0.0 0.0 0.0 0.0 0.0 0.0 0.0 0.0" Properties=species:S:1:pos:R:3:forces:R:3 energy=-44220.73587441 pbc="F F F"
Al		-1.69773881		2.66647481		-1.20802645		0.00811366		0.00128996		0.00639183
Al		-0.53985821		-0.02736560		-2.35580798		0.01255114		0.01928217		-0.01310879
Al		-2.20531587		-0.36604262		-0.52835628		-0.01371032		0.01196121		0.01789242
F		-0.69997382		3.46210558		-0.15036718		-0.00397755		-0.00787507		-0.00578847
F		-2.86506511		3.38548219		-2.13896470		0.0018575		-0.00821071		0.00091016
F		-1.21117521		-1.60380064		-1.55610699		0.00286239		-0.02238854		-0.0010821
F		-2.58454196		1.40993373		-0.19130468		-0.00217207		-0.00191523		-0.00129973
F		-3.13980503		-1.21929810		0.52091647		0.0040516		0.0062618		-0.00300798
F		0.53758618		-0.47039603		-3.51562898		-0.00296905		0.00448328		0.00624802
F		-0.57322891		1.81907296		-2.39783828		-0.00215638		-0.00215547		-0.00164356
F		-2.38944347		0.20808948		-2.29365684		-0.00043713		0.00205404		-0.00109647
F		-0.45638078		0.28487624		-0.51787312		-0.00401379		-0.00278743		-0.00441535
12
Lattice="0.0 0.0 0.0 0.0 0.0 0.0 0.0 0.0 0.0" Properties=species:S:1:pos:R:3:forces:R:3 energy=-44220.73562284 pbc="F F F"
Al		-1.69919841		2.66901016		-1.20877516		0.01431484		0.00043936		0.0113948
Al		-0.53945580		-0.02935148		-2.35503577		0.00968812		0.04334574		0.0057208
Al		-2.20414854		-0.36791028		-0.52840942		-0.00034392		0.03913945		0.01908142
F		-0.70922935		3.48050798		-0.15541037		-0.00768526		-0.01151247		-0.00966325
F		-2.87017616		3.37436559		-2.14606029		0.00715649		-0.01476705		0.00472835
F		-1.21999664		-1.60622805		-1.56468927		-0.00228325		-0.02183677		-0.005714
F		-2.57180840		1.41048348		-0.18303647		-0.00297949		-0.01024415		-0.00653242
F		-3.14336892		-1.21853966		0.51807043		-0.0024268		-0.00159756		0.00441198
F		0.53415629		-0.46943899		-3.51888038		0.00508017		-0.00043521		-0.00240441
F		-0.56388071		1.81890074		-2.38574616		-0.00579062		-0.01117868		-0.0036241
F		-2.38817224		0.21771697		-2.29058044		0.0092078		-0.00576184		0.00584976
F		-0.44966213		0.26961553		-0.51446169		-0.02393808		-0.00559083		-0.02324894
12
Lattice="0.0 0.0 0.0 0.0 0.0 0.0 0.0 0.0 0.0" Properties=species:S:1:pos:R:3:forces:R:3 energy=-44220.73572424 pbc="F F F"
Al		-1.69958202		2.67054730		-1.20868643		0.01336618		-0.01368722		0.00810132
Al		-0.53883641		-0.03048083		-2.35458941		-0.00403118		0.05133058		0.03198431
Al		-2.20336316		-0.36910250		-0.52800936		0.02161488		0.05514062		0.00512865
F		-0.72450795		3.51001299		-0.16436170		0.00387559		-0.00500832		0.00248506
F		-2.87720951		3.34810047		-2.15736000		-0.00251032		-0.00675994		-0.00290461
F		-1.23600472		-1.60901765		-1.57990768		-0.00857191		-0.01075423		-0.00939595
F		-2.55177633		1.41142378		-0.16797433		-0.00373278		-0.01882841		-0.00729463
F		-3.14929154		-1.21608967		0.51432185		-0.01257073		-0.01433878		0.01568002
F		0.52960295		-0.46657251		-3.52373803		0.01690045		-0.00841933		-0.01600521
F		-0.54733717		1.81908946		-2.36697245		-0.00461644		-0.01893025		-0.00639869
F		-2.38542000		0.23551061		-2.28465844		0.0136083		-0.01115974		0.00917263
F		-0.44121514		0.24571055		-0.51107902		-0.03333204		0.00141503		-0.03055289
12
Lattice="0.0 0.0 0.0 0.0 0.0 0.0 0.0 0.0 0.0" Properties=species:S:1:pos:R:3:forces:R:3 energy=-44220.73565671 pbc="F F F"
Al		-1.69841706		2.67052374		-1.20751698		0.00427411		-0.01575003		0.00046568
Al		-0.53841792		-0.03009532		-2.35468038		-0.01838067		0.03227218		0.04779347
Al		-2.20337248		-0.36893567		-0.52742548		0.0379881		0.04388008		-0.01450497
F		-0.74074079		3.54185512		-0.17399165		0.01165041		-0.00236745		0.01034797
F		-2.88396094		3.31411954		-2.16953639		-0.00836411		0.00538624		-0.00655747
F		-1.25454387		-1.61129295		-1.59732249		-0.01110456		0.01534936		-0.00682984
F		-2.53041688		1.41256587		-0.15070766		-0.00639055		-0.02402481		-0.00443958
F		-3.15541469		-1.21311029		0.51104276		-0.01822392		-0.02139288		0.02114023
F		0.52558147		-0.46304925		-3.52852444		0.02246306		-0.01291853		-0.02374832
F		-0.52858923		1.81964368		-2.34709661		-0.00050126		-0.02190233		-0.01077656
F		-2.38212707		0.25546841		-2.27788320		0.01162316		-0.00846305		0.00863308
F		-0.43452154		0.22143912		-0.50937248		-0.02503377		0.00993123		-0.0215237
12
Lattice="0.0 0.0 0.0 0.0 0.0 0.0 0.0 0.0 0.0" Properties=species:S:1:pos:R:3:forces:R:3 energy=-44220.73563801 pbc="F F F"
Al		-1.69738834		2.66966284		-1.20671364		-0.00462312		0.00040214		-0.00396089
Al		-0.53807573		-0.02914216		-2.35470515		-0.02158989		0.00953976		0.03967975
Al		-2.20348537		-0.36815830		-0.52683447		0.03332724		0.02179959		-0.02199998
F		-0.74825899		3.55707751		-0.17842318		0.00521816		-0.01099326		0.00300079
F		-2.88725252		3.29555517		-2.17579176		-0.00031625		0.00848852		0.00110281
F		-1.26459982		-1.61168902		-1.60659369		-0.00701994		0.02935341		-0.00049449
F		-2.52053295		1.41313481		-0.14192915		-0.00676768		-0.02364613		-0.00011547
F		-3.15811866		-1.21205632		0.50988822		-0.01329822		-0.01699512		0.01613339
F		0.52417821		-0.46164399		-3.53065321		0.0171889		-0.0106057		-0.0179531
F		-0.51914351		1.82009666		-2.33797404		0.00390719		-0.02010006		-0.01161205
F		-2.38009548		0.26595910		-2.27405424		0.00572306		-0.00218179		0.00483435
F		-0.43216783		0.21033568		-0.50923068		-0.01174946		0.01493865		-0.0086151
12
Lattice="0.0 0.0 0.0 0.0 0.0 0.0 0.0 0.0 0.0" Properties=species:S:1:pos:R:3:forces:R:3 energy=-44220.73564321 pbc="F F F"
Al		-1.69574096		2.66892345		-1.20534150		-0.01291354		0.04799717		-0.00224062
Al		-0.53824360		-0.02791164		-2.35439381		0.00252113		-0.0286489		-0.01093631
Al		-2.20340745		-0.36698793		-0.52668034		-0.00691468		-0.02861922		-0.00296089
F		-0.75192040		3.56864074		-0.18007175		-0.02509397		-0.04077223		-0.02979056
F		-2.88989865		3.27979178		-2.18099530		0.02720384		0.00564774		0.02562646
F		-1.27275809		-1.61243299		-1.61418396		0.0074819		0.05218529		0.01693267
F		-2.51346731		1.41368175		-0.13609174		-0.01166693		-0.01966634		0.00875487
F		-3.16013294		-1.21146579		0.50989847		0.01271851		0.00641091		-0.01057164
F		0.52404647		-0.46046948		-3.53227690		-0.01042961		0.00160703		0.01386177
F		-0.51285379		1.82048324		-2.33140639		0.01141473		-0.01348656		-0.01635601
F		-2.37861190		0.27241797		-2.27143641		-0.00522487		0.01250701		-0.00218341
F		-0.43195239		0.20446091		-0.51003536		0.01090348		0.0048381		0.00986367
12
Lattice="0.0 0.0 0.0 0.0 0.0 0.0 0.0 0.0 0.0" Properties=species:S:1:pos:R:3:forces:R:3 energy=-44220.73564308 pbc="F F F"
Al		-1.69613911		2.66540780		-1.20636031		-0.01554945		0.09348717		0.00369861
Al		-0.53689719		-0.02567122		-2.35243632		0.02429677		-0.06223089		-0.08730574
Al		-2.20179099		-0.36475870		-0.52498312		-0.07287362		-0.07983749		0.0166034
F		-0.75752644		3.57649636		-0.18402360		-0.04826444		-0.06399789		-0.05490113
F		-2.89344927		3.26465620		-2.18701124		0.0486922		-7.732e-05		0.04425666
F		-1.28609231		-1.60868726		-1.62557268		0.05153102		0.0322361		0.05295284
F		-2.50713505		1.41342589		-0.12778895		-0.01353827		-0.00708933		0.01530082
F		-3.16002961		-1.21306751		0.50943592		0.0408459		0.0319093		-0.03448015
F		0.52396590		-0.46186103		-3.53235158		-0.03543663		0.01578841		0.04827729
F		-0.50400775		1.82075465		-2.32588222		0.01510254		-3.993e-05		-0.01592271
F		-2.37526532		0.28322019		-2.26636199		-0.03154654		0.05369613		-0.01820631
F		-0.43057385		0.19921662		-0.50967891		0.03674051		-0.01384426		0.02972643
12
Lattice="0.0 0.0 0.0 0.0 0.0 0.0 0.0 0.0 0.0" Properties=species:S:1:pos:R:3:forces:R:3 energy=-44220.73564318 pbc="F F F"
Al		-1.70059846		2.65794738		-1.21182801		0.01334012		0.07677794		0.02633125
Al		-0.53790930		-0.02340730		-2.35110142		0.10463146		-0.06003335		-0.13492821
Al		-2.20106590		-0.36217706		-0.52557771		-0.11043061		-0.10215933		0.09888331
F		-0.77092440		3.58413979		-0.19482456		-0.04878521		-0.05788034		-0.0541503
F		-2.90001472		3.24482601		-2.19675144		0.04426313		-0.00128451		0.04021752
F		-1.29924112		-1.60314763		-1.63635764		-0.00284625		0.0574269		0.00718873
F		-2.49493741		1.40969531		-0.11080906		-0.03196315		0.05064772		0.02260569
F		-3.15738715		-1.21792019		0.50575796		0.04643505		0.04323332		-0.05287538
F		0.52143092		-0.46757572		-3.53051616		-0.054706		0.02154037		0.05752797
F		-0.48523486		1.81842077		-2.31588667		0.00899257		0.05909885		-0.02253622
F		-2.37048404		0.31979284		-2.25526855		-0.03919985		-0.06690394		-0.04755403
F		-0.42857456		0.18853779		-0.50985172		0.07026873		-0.02046363		0.05928968
12
Lattice="0.0 0.0 0.0 0.0 0.0 0.0 0.0 0.0 0.0" Properties=species:S:1:pos:R:3:forces:R:3 energy=-44220.73564310 pbc="F F F"
Al		-1.70994845		2.64240282		-1.22322761		0.05474261		-0.02589693		0.04387268
Al		-0.53172679		-0.01661099		-2.34774663		0.02234992		-0.03132214		-0.0775865
Al		-2.19833834		-0.35598633		-0.51852779		-0.06736622		-0.04965468		0.02078893
F		-0.79750421		3.58961858		-0.21741132		0.03373316		0.02469779		0.03578232
F		-2.90799513		3.21792872		-2.20912048		-0.04460277		0.02461842		-0.03580483
F		-1.33158453		-1.58248069		-1.66178630		0.0262659		-0.06238215		0.01091579
F		-2.48080504		1.40695123		-0.07976291		-0.0094531		0.07493478		-0.02207202
F		-3.15096676		-1.22583726		0.49864001		-0.021843		-0.00834004		0.02402667
F		0.51630738		-0.47811327		-3.52560818		0.02266067		0.00011933		-0.02461458
F		-0.45252588		1.81950720		-2.30469537		-0.03733435		0.06824972		0.00748002
F		-2.36168858		0.36531807		-2.23904380		-0.04339232		-0.02886166		-0.04448351
F		-0.41816466		0.16643392		-0.50472461		0.06423949		0.01383757		0.06169504
12
Lattice="0.0 0.0 0.0 0.0 0.0 0.0 0.0 0.0 0.0" Properties=species:S:1:pos:R:3:forces:R:3 energy=-44220.73564310 pbc="F F F"
Al		-1.71361128		2.63682587		-1.22758510		0.07580114		-0.0826988		0.0522935
Al		-0.52978737		-0.01395088		-2.34850210		-0.02381436		-0.0105092		0.00756241
Al		-2.19932064		-0.35382575		-0.51614236		0.00756044		-0.00494186		-0.02596454
F		-0.80756565		3.59101147		-0.22593830		0.07026551		0.06279246		0.07570644
F		-2.91070968		3.20882542		-2.21327096		-0.08780219		0.04091908		-0.0721913
F		-1.33867004		-1.57539175		-1.66687086		-0.01528446		-0.09050234		-0.0321395
F		-2.47676126		1.40660737		-0.06755476		0.01178056		0.06881469		-0.053398
F		-3.14943093		-1.22833813		0.49597907		-0.06513232		-0.04100143		0.06356615
F		0.51422210		-0.48163415		-3.52456721		0.06249685		-0.01509268		-0.07600862
F		-0.44001003		1.82088229		-2.30163917		-0.06424086		0.05227281		0.02911971
F		-2.35991294		0.38430619		-2.23406140		-0.01402758		-0.05838413		-0.02299007
F		-0.41338329		0.15381404		-0.50286186		0.04239727		0.0783314		0.05444383
12
Lattice="0.0 0.0 0.0 0.0 0.0 0.0 0.0 0.0 0.0" Properties=species:S:1:pos:R:3:forces:R:3 energy=-44222.06079364 pbc="F F F"
Al		-1.71725353		2.63141362		-1.23198017		0.07084794		-0.02943752		0.05907273
Al		-0.52273180		-0.01606399		-2.35027627		-0.07178147		0.0722263		0.0501597
Al		-2.19985937		-0.35738681		-0.50972972		0.02960436		0.09205707		-0.05896399
F		-0.81314858		3.59534298		-0.22953799		-0.00929922		-0.01555263		-0.01245514
F		-2.91884458		3.19998695		-2.22213677		0.01391721		0.00320271		0.01307867
F		-1.35516329		-1.57504820		-1.68189508		0.03880179		0.04784814		0.04410135
F		-2.47499406		1.40568872		-0.05353229		0.03933359		0.03966964		-0.09878979
F		-3.15422768		-1.23416916		0.50189629		0.00761735		0.00492651		-0.007317
F		0.52042437		-0.48584074		-3.53097175		-0.00688462		0.00293222		0.00930801
F		-0.42588182		1.82248696		-2.30123784		-0.09936361		0.01068843		0.05368317
F		-2.35810090		0.40701206		-2.22842169		0.08569848		-0.1485363		0.05123303
F		-0.40515976		0.15570962		-0.49519172		-0.0984918		-0.08002457		-0.10311073
12
Lattice="0.0 0.0 0.0 0.0 0.0 0.0 0.0 0.0 0.0" Properties=species:S:1:pos:R:3:forces:R:3 energy=-44222.03140381 pbc="F F F"
Al		-1.71873106		2.62575896		-1.23450865		0.04238086		0.12787549		0.06429001
Al		-0.51623366		-0.01173215		-2.35757282		-0.13285886		0.01216475		0.16870091
Al		-2.20703681		-0.35582700		-0.50212044		0.14982174		0.06967439		-0.13847285
F		-0.81572452		3.59903385		-0.23066970		-0.09238946		-0.11123651		-0.10697506
F		-2.92477946		3.19490733		-2.22829513		0.1289351		-0.05323535		0.1068314
F		-1.35721006		-1.56871644		-1.68268401		-0.00997102		0.0237437		-0.00386496
F		-2.47793973		1.41073690		-0.04054618		0.09968825		-0.047204		-0.1823129
F		-3.16198271		-1.23919830		0.50902093		0.0680425		0.07253549		-0.07866012
F		0.52735537		-0.48833841		-3.54011149		-0.08182133		0.04361665		0.08683151
F		-0.41431956		1.83050067		-2.30422995		-0.15846128		-0.10014003		0.1017042
F		-2.35976781		0.41378692		-2.22878895		0.16969613		-0.10410641		0.1354437
F		-0.39857099		0.13821967		-0.49250859		-0.18306263		0.06631183		-0.15351584
12
Lattice="0.0 0.0 0.0 0.0 0.0 0.0 0.0 0.0 0.0" Properties=species:S:1:pos:R:3:forces:R:3 energy=-44222.01033026 pbc="F F F"
Al		-1.72036565		2.63887694		-1.23372936		0.27550409		-1.25969526		0.02018468
Al		-0.51026770		-0.02661654		-2.36275297		-1.38624788		0.76782862		1.54349755
Al		-2.20854635		-0.37222100		-0.49884732		1.21738054		1.29835966		-1.31286774
F		-0.83987485		3.59052393		-0.25369598		0.56730888		0.61501771		0.62887755
F		-2.90103084		3.18290315		-2.20868165		-0.7456067		0.38499323		-0.60963072
F		-1.36707515		-1.55889391		-1.68991657		0.04495219		-0.32049723		-0.01765578
F		-2.46412133		1.39419357		-0.05476886		-0.06099893		0.18855327		0.07106019
F		-3.13800153		-1.21821371		0.48538465		-0.96091061		-0.91164144		1.01642259
F		0.50310395		-0.47761257		-3.51077858		1.05273879		-0.50007329		-1.19448423
F		-0.42349339		1.80916275		-2.29304065		0.02840413		0.20855453		-0.02749838
F		-2.33740493		0.43071382		-2.20519741		-0.14017359		-0.27573021		-0.18152399
F		-0.41786323		0.15631557		-0.50699029		0.10764909		-0.1956696		0.0636183
12
Lattice="0.0 0.0 0.0 0.0 0.0 0.0 0.0 0.0 0.0" Properties=species:S:1:pos:R:3:forces:R:3 energy=-44222.01061587 pbc="F F F"
Al		-1.70921329		2.60772098		-1.22911322		-0.35147768		1.76277992		0.00610553
Al		-0.49223889		-0.01086687		-2.38790141		0.5968354		-0.40547637		-0.55716573
Al		-2.23427100		-0.36531732		-0.47642511		-0.40551782		-0.61097786		0.54578074
F		-0.77482163		3.65776579		-0.18289057		-1.13985834		-1.29619924		-1.27766805
F		-2.98522006		3.17215869		-2.28725709		1.55421218		-0.60785212		1.3038318
F		-1.37536965		-1.60513766		-1.70596391		0.02617581		1.02066911		0.21217953
F		-2.50096808		1.43484728		0.01206031		0.34975455		-0.45756658		-0.56978528
F		-3.23756377		-1.29475768		0.58876970		1.29511476		1.19523576		-1.38763465
F		0.60750139		-0.51229735		-3.63055074		-1.43142436		0.63989318		1.60361765
F		-0.37014859		1.86837616		-2.32600643		-0.43409504		-0.61860698		0.29211909
F		-2.38574846		0.45203699		-2.24531802		0.85294201		-0.42469238		0.69725543
F		-0.36687897		0.14460299		-0.46241851		-0.91266145		-0.19720644		-0.86863607
12
Lattice="0.0 0.0 0.0 0.0 0.0 0.0 0.0 0.0 0.0" Properties=species:S:1:pos:R:3:forces:R:3 energy=-44227.91090910 pbc="F F F"
Al		-1.69685862		2.66412512		-1.20767524		0.00030463		0.00033375		0.00020078
Al		-0.53997865		-0.02557887		-2.35680207		-1.315e-05		0.00028839		0.00030951
Al		-2.20649647		-0.36464044		-0.52800179		0.00028701		-0.00020118		-0.00022659
F		-0.69666255		3.45536045		-0.14960779		-7.529e-05		-0.00011163		-0.00017092
F		-2.86467221		3.38277022		-2.13800852		-0.00013916		4.073e-05		-3.993e-05
F		-1.21028371		-1.60340145		-1.55512207		-0.00024516		-3.374e-05		0.00011533
F		-2.58797442		1.40998190		-0.19161550		-2.431e-05		0.00015508		0.00010205
F		-3.13932950		-1.21744170		0.52275105		-4.613e-05		-0.00021186		0.00023632
F		0.53994676		-0.46843116		-3.51404975		0.00030432		-0.00016103		3.67e-06
F		-0.57435756		1.81976746		-2.40153648		-6.631e-05		4.989e-05		5.251e-05
F		-2.38982218		0.20812631		-2.29409046		-8.144e-05		-5.801e-05		-0.00012749
F		-0.45845189		0.28849415		-0.51925637		-0.000205		-9.041e-05		-0.00045523
12
Lattice="0.0 0.0 0.0 0.0 0.0 0.0 0.0 0.0 0.0" Properties=species:S:1:pos:R:3:forces:R:3 energy=-44222.35782250 pbc="F F F"
Al		-1.69682482		2.66402839		-1.20766163		0.00074624		0.00086799		0.00062736
Al		-0.53995665		-0.02557035		-2.35681492		-0.00071991		3.698e-05		0.00098336
Al		-2.20651229		-0.36462028		-0.52797546		0.00100447		-0.00028169		-0.00105779
F		-0.69668342		3.45530211		-0.14957054		5.828e-05		-0.00027315		-0.00011799
F		-2.86455836		3.38278118		-2.13796393		-0.00079637		0.0002818		-0.00056746
F		-1.21013313		-1.60339807		-1.55500037		-0.00052368		0.00030452		5.83e-06
F		-2.58805115		1.40996823		-0.19164208		-0.00019174		0.00016012		0.00025322
F		-3.13939470		-1.21739451		0.52271940		-0.00036126		-0.00065768		0.00067378
F		0.53984638		-0.46838413		-3.51416110		0.0007961		-0.00042335		-0.00035969
F		-0.57435768		1.81975327		-2.40158169		9.14e-06		9.606e-05		-9.504e-05
F		-2.38980679		0.20804779		-2.29409198		-7.527e-05		-0.0001239		-0.00013406
F		-0.45850839		0.28861838		-0.51927070		5.399e-05		1.231e-05		-0.00021153
12
Lattice="0.0 0.0 0.0 0.0 0.0 0.0 0.0 0.0 0.0" Properties=species:S:1:pos:R:3:forces:R:3 energy=-44220.81260209 pbc="F F F"
Al		-1.69668753		2.66401799		-1.20754168		0.00150506		0.00229646		0.00147911
Al		-0.53996886		-0.02559221		-2.35686444		-0.00124962		-0.00047407		0.00068842
Al		-2.20657019		-0.36462202		-0.52799281		0.00095084		-0.00085507		-0.00166856
F		-0.69610711		3.45439998		-0.14908550		-0.0010265		-0.00169916		-0.00146009
F		-2.86405755		3.38394768		-2.13738990		-0.000959		0.00023954		-0.00066374
F		-1.20916696		-1.60342280		-1.55414172		-0.00096446		0.0012349		-0.00012033
F		-2.58890148		1.40995094		-0.19241101		1.402e-05		-5.882e-05		0.00037544
F		-3.13932101		-1.21744159		0.52280117		-7.867e-05		-0.00034209		0.00050493
F		0.53984926		-0.46844110		-3.51420488		0.0006412		-0.00016689		0.00012716
F		-0.57514497		1.81972669		-2.40231790		0.00010752		-0.00015092		0.00010546
F		-2.38994024		0.20696080		-2.29442069		0.00048704		-0.00012624		0.00034542
F		-0.45892436		0.28964764		-0.51944565		0.00057259		0.00010234		0.0002868
12
Lattice="0.0 0.0 0.0 0.0 0.0 0.0 0.0 0.0 0.0" Properties=species:S:1:pos:R:3:forces:R:3 energy=-44220.79389446 pbc="F F F"
Al		-1.69661500		2.66416538		-1.20744998		0.00175017		0.00080967		0.00121231
Al		-0.53994239		-0.02572260		-2.35677866		0.00039927		-0.00019798		-0.00333687
Al		-2.20648857		-0.36469655		-0.52800973		-0.00250507		-0.00189796		0.00040325
F		-0.69638460		3.45485974		-0.14902879		0.00109847		-0.00167196		0.00033605
F		-2.86364726		3.38467301		-2.13709243		-0.00344326		0.00067579		-0.00273247
F		-1.20888883		-1.60323789		-1.55387170		0.00014616		-0.00447707		-0.00010608
F		-2.58895915		1.40990052		-0.19272792		-0.00072258		0.00031954		0.001245
F		-3.13926234		-1.21784133		0.52261951		0.00117865		0.0015152		-0.00060312
F		0.53957095		-0.46886836		-3.51440336		-0.00055079		0.00116089		0.00202555
F		-0.57535299		1.81960419		-2.40228057		0.00063517		0.00051041		-0.00048127
F		-2.38986277		0.20645530		-2.29444108		-0.00156586		0.0019013		-0.00127186
F		-0.45910804		0.28984060		-0.51955029		0.00357966		0.00135216		0.00330951
12
Lattice="0.0 0.0 0.0 0.0 0.0 0.0 0.0 0.0 0.0" Properties=species:S:1:pos:R:3:forces:R:3 energy=-44220.73901512 pbc="F F F"
Al		-1.69669499		2.66506636		-1.20735820		0.00440757		0.00169391		0.00349858
Al		-0.54006534		-0.02626168		-2.35655331		0.00625875		0.00443396		-0.00990037
Al		-2.20622579		-0.36510754		-0.52827118		-0.00874923		-0.00011791		0.00788522
F		-0.69626694		3.45540822		-0.14852142		-0.00219562		-0.00537479		-0.00354805
F		-2.86326199		3.38706129		-2.13660468		-0.00167751		-0.00184343		-0.00138138
F		-1.20798573		-1.60347368		-1.55310952		0.0010886		-0.00828998		3.822e-05
F		-2.58907606		1.40990216		-0.19377749		-0.00135809		-0.00040931		0.00060114
F		-3.13910403		-1.21847772		0.52233127		0.00379321		0.00512739		-0.00330278
F		0.53917947		-0.46954144		-3.51460433		-0.00336804		0.00354917		0.00572196
F		-0.57626629		1.81939539		-2.40222154		-0.00016865		-0.00028761		-0.00098798
F		-2.39006579		0.20486305		-2.29489852		-0.00066387		0.00271577		-0.00061403
F		-0.45910752		0.29029760		-0.51942609		0.00263286		-0.00119718		0.00198946
12
Lattice="0.0 0.0 0.0 0.0 0.0 0.0 0.0 0.0 0.0" Properties=species:S:1:pos:R:3:forces:R:3 energy=-44220.73587441 pbc="F F F"
Al		-1.69773881		2.66647481		-1.20802645		0.00811366		0.00128996		0.00639183
Al		-0.53985821		-0.02736560		-2.35580798		0.01255114		0.01928217		-0.01310879
Al		-2.20531587		-0.36604262		-0.52835628		-0.01371032		0.01196121		0.01789242
F		-0.69997382		3.46210558		-0.15036718		-0.00397755		-0.00787507		-0.00578847
F		-2.86506511		3.38548219		-2.13896470		0.0018575		-0.00821071		0.00091016
F		-1.21117521		-1.60380064		-1.55610699		0.00286239		-0.02238854		-0.0010821
F		-2.58454196		1.40993373		-0.19130468		-0.00217207		-0.00191523		-0.00129973
F		-3.13980503		-1.21929810		0.52091647		0.0040516		0.0062618		-0.00300798
F		0.53758618		-0.47039603		-3.51562898		-0.00296905		0.00448328		0.00624802
F		-0.57322891		1.81907296		-2.39783828		-0.00215638		-0.00215547		-0.00164356
F		-2.38944347		0.20808948		-2.29365684		-0.00043713		0.00205404		-0.00109647
F		-0.45638078		0.28487624		-0.51787312		-0.00401379		-0.00278743		-0.00441535
12
Lattice="0.0 0.0 0.0 0.0 0.0 0.0 0.0 0.0 0.0" Properties=species:S:1:pos:R:3:forces:R:3 energy=-44220.73562284 pbc="F F F"
Al		-1.69919841		2.66901016		-1.20877516		0.01431484		0.00043936		0.0113948
Al		-0.53945580		-0.02935148		-2.35503577		0.00968812		0.04334574		0.0057208
Al		-2.20414854		-0.36791028		-0.52840942		-0.00034392		0.03913945		0.01908142
F		-0.70922935		3.48050798		-0.15541037		-0.00768526		-0.01151247		-0.00966325
F		-2.87017616		3.37436559		-2.14606029		0.00715649		-0.01476705		0.00472835
F		-1.21999664		-1.60622805		-1.56468927		-0.00228325		-0.02183677		-0.005714
F		-2.57180840		1.41048348		-0.18303647		-0.00297949		-0.01024415		-0.00653242
F		-3.14336892		-1.21853966		0.51807043		-0.0024268		-0.00159756		0.00441198
F		0.53415629		-0.46943899		-3.51888038		0.00508017		-0.00043521		-0.00240441
F		-0.56388071		1.81890074		-2.38574616		-0.00579062		-0.01117868		-0.0036241
F		-2.38817224		0.21771697		-2.29058044		0.0092078		-0.00576184		0.00584976
F		-0.44966213		0.26961553		-0.51446169		-0.02393808		-0.00559083		-0.02324894
12
Lattice="0.0 0.0 0.0 0.0 0.0 0.0 0.0 0.0 0.0" Properties=species:S:1:pos:R:3:forces:R:3 energy=-44220.73572424 pbc="F F F"
Al		-1.69958202		2.67054730		-1.20868643		0.01336618		-0.01368722		0.00810132
Al		-0.53883641		-0.03048083		-2.35458941		-0.00403118		0.05133058		0.03198431
Al		-2.20336316		-0.36910250		-0.52800936		0.02161488		0.05514062		0.00512865
F		-0.72450795		3.51001299		-0.16436170		0.00387559		-0.00500832		0.00248506
F		-2.87720951		3.34810047		-2.15736000		-0.00251032		-0.00675994		-0.00290461
F		-1.23600472		-1.60901765		-1.57990768		-0.00857191		-0.01075423		-0.00939595
F		-2.55177633		1.41142378		-0.16797433		-0.00373278		-0.01882841		-0.00729463
F		-3.14929154		-1.21608967		0.51432185		-0.01257073		-0.01433878		0.01568002
F		0.52960295		-0.46657251		-3.52373803		0.01690045		-0.00841933		-0.01600521
F		-0.54733717		1.81908946		-2.36697245		-0.00461644		-0.01893025		-0.00639869
F		-2.38542000		0.23551061		-2.28465844		0.0136083		-0.01115974		0.00917263
F		-0.44121514		0.24571055		-0.51107902		-0.03333204		0.00141503		-0.03055289
12
Lattice="0.0 0.0 0.0 0.0 0.0 0.0 0.0 0.0 0.0" Properties=species:S:1:pos:R:3:forces:R:3 energy=-44220.73565671 pbc="F F F"
Al		-1.69841706		2.67052374		-1.20751698		0.00427411		-0.01575003		0.00046568
Al		-0.53841792		-0.03009532		-2.35468038		-0.01838067		0.03227218		0.04779347
Al		-2.20337248		-0.36893567		-0.52742548		0.0379881		0.04388008		-0.01450497
F		-0.74074079		3.54185512		-0.17399165		0.01165041		-0.00236745		0.01034797
F		-2.88396094		3.31411954		-2.16953639		-0.00836411		0.00538624		-0.00655747
F		-1.25454387		-1.61129295		-1.59732249		-0.01110456		0.01534936		-0.00682984
F		-2.53041688		1.41256587		-0.15070766		-0.00639055		-0.02402481		-0.00443958
F		-3.15541469		-1.21311029		0.51104276		-0.01822392		-0.02139288		0.02114023
F		0.52558147		-0.46304925		-3.52852444		0.02246306		-0.01291853		-0.02374832
F		-0.52858923		1.81964368		-2.34709661		-0.00050126		-0.02190233		-0.01077656
F		-2.38212707		0.25546841		-2.27788320		0.01162316		-0.00846305		0.00863308
F		-0.43452154		0.22143912		-0.50937248		-0.02503377		0.00993123		-0.0215237
12
Lattice="0.0 0.0 0.0 0.0 0.0 0.0 0.0 0.0 0.0" Properties=species:S:1:pos:R:3:forces:R:3 energy=-44220.73563801 pbc="F F F"
Al		-1.69738834		2.66966284		-1.20671364		-0.00462312		0.00040214		-0.00396089
Al		-0.53807573		-0.02914216		-2.35470515		-0.02158989		0.00953976		0.03967975
Al		-2.20348537		-0.36815830		-0.52683447		0.03332724		0.02179959		-0.02199998