12
Total energy -44222.713627322
 Al   -1.696859    2.664125   -1.207675
 Al   -0.539979   -0.025579   -2.356802
 Al   -2.206496   -0.364640   -0.528002
  F   -0.696663    3.455360   -0.149608
  F   -2.864672    3.382770   -2.138009
  F   -1.210284   -1.603401   -1.555122
  F   -2.587974    1.409982   -0.191616
  F   -3.139330   -1.217442    0.522751
  F    0.539947   -0.468431   -3.514050
  F   -0.574358    1.819767   -2.401536
  F   -2.389822    0.208126   -2.294090
  F   -0.458452    0.288494   -0.519256
