12
Lattice="0.0 0.0 0.0 0.0 0.0 0.0 0.0 0.0 0.0" Properties=species:S:1:pos:R:3:forces:R:3 energy=-44229.09309307 pbc="F F F"
Al		0.34975397		-0.59223478		1.75882825		0.00055905		0.00042954		-0.00040062
Al		2.40624850		-1.79452037		-0.51255678		-2.135e-05		-0.00018423		5.967e-05
Al		-0.95192895		-1.83895398		-1.00094282		0.0004534		-0.0003551		-0.00021911
F		3.42253506		-0.55800660		-0.91873682		-0.00054464		-0.00055518		0.00026423
F		-1.84395696		-0.64234696		-1.70744157		0.00014504		-0.00044384		-0.00025861
F		2.72880021		-3.41043870		-0.64113794		7.413e-05		0.00068254		-0.00019967
F		-1.17450367		-3.46650971		-1.18480658		3.76e-05		0.00014809		0.00037058
F		1.78313369		-1.51992619		1.16711302		0.00024198		-0.00077769		-0.00049259
F		0.80012216		-1.48297448		-1.28895729		-0.00026106		0.00068854		0.000551
F		0.11363933		-0.90945819		3.36042057		-0.00012664		-0.00032113		0.00069433
F		0.45655466		0.88288077		1.01328287		0.00030356		0.00093705		-2.934e-05
F		-0.84841199		-1.52679281		0.78093609		-0.00086106		-0.00024858		-0.00033987
12
Lattice="0.0 0.0 0.0 0.0 0.0 0.0 0.0 0.0 0.0" Properties=species:S:1:pos:R:3:forces:R:3 energy=-44222.93506830 pbc="F F F"
Al		0.34974414		-0.59227025		1.75863630		0.00068272		0.00096266		-0.00137664
Al		2.40632663		-1.79459107		-0.51243573		3.143e-05		0.00148312		0.001143
Al		-0.95199133		-1.83901613		-1.00082189		8.03e-05		0.00130388		0.00023794
F		3.42260422		-0.55803671		-0.91849173		-0.00051804		-0.0003663		0.00014931
F		-1.84396173		-0.64204523		-1.70678873		0.00025567		-0.00054805		-0.00029624
F		2.72894038		-3.41040594		-0.64144487		0.00025873		-0.00090869		9.674e-05
F		-1.17463775		-3.46640596		-1.18563498		-0.00018434		-0.00111583		0.00067671
F		1.78329247		-1.51993924		1.16733889		0.0004874		-0.00130533		-0.0013111
F		0.80008820		-1.48308454		-1.28845772		-0.00026539		0.00114986		-0.00054426
F		0.11368869		-0.90879614		3.36031547		-0.00037318		-0.00088719		0.00244242
F		0.45629852		0.88261386		1.01260931		0.00036642		0.00099392		-0.0004016
F		-0.84840645		-1.52730465		0.78117667		-0.0008217		-0.00076205		-0.00081626
12
Lattice="0.0 0.0 0.0 0.0 0.0 0.0 0.0 0.0 0.0" Properties=species:S:1:pos:R:3:forces:R:3 energy=-44221.06606773 pbc="F F F"
Al		0.34970024		-0.59215091		1.75847921		0.000815		0.00062465		-0.00210564
Al		2.40645347		-1.79476961		-0.51241625		0.00056055		0.00327414		0.00348303
Al		-0.95205392		-1.83914841		-1.00074940		-0.00060256		0.00302942		0.00157836
F		3.42276281		-0.55840978		-0.91890815		-0.00022369		0.00022543		8.6e-06
F		-1.84371341		-0.64194281		-1.70664770		-0.0002613		0.00010953		-0.00060015
F		2.72907345		-3.41051096		-0.64152040		0.00013811		-0.00266234		0.00041384
F		-1.17487976		-3.46635587		-1.18630467		-0.00020847		-0.0030257		0.00094512
F		1.78367900		-1.51947012		1.16747703		-9.531e-05		-0.0013292		-0.00249817
F		0.80002380		-1.48309169		-1.28762132		-0.00018028		0.00136188		-0.00300235
F		0.11377028		-0.90879672		3.36012165		-0.00052326		-0.00116651		0.00368053
F		0.45569486		0.88293738		1.01276592		0.00048037		0.00022169		-0.00075627
F		-0.84852481		-1.52757247		0.78132507		0.00010084		-0.00066299		-0.0011469
12
Lattice="0.0 0.0 0.0 0.0 0.0 0.0 0.0 0.0 0.0" Properties=species:S:1:pos:R:3:forces:R:3 energy=-44221.03741965 pbc="F F F"
Al		0.34952530		-0.59179081		1.75865105		0.00074449		-0.00152731		-0.00148837
Al		2.40654405		-1.79500692		-0.51270297		0.00203375		0.00324176		0.00680738
Al		-0.95188974		-1.83924223		-1.00090475		-0.00175738		0.00280289		0.00373552
F		3.42357589		-0.55986874		-0.92102380		0.00011111		0.00083282		0.00014323
F		-1.84329136		-0.64243499		-1.70767585		-0.0013681		0.00139388		-0.00084353
F		2.72802766		-3.41107575		-0.64055773		-0.00047611		-0.00253104		0.0004746
F		-1.17448634		-3.46646859		-1.18626818		0.00020791		-0.00380359		0.00085694
F		1.78454868		-1.51759199		1.16726983		-0.00202285		-0.00033595		-0.0038195
F		0.80002476		-1.48228215		-1.28679583		-0.00012626		0.00100641		-0.00633538
F		0.11394192		-0.91055687		3.35999615		-0.00026593		-0.00045347		0.0023239
F		0.45410405		0.88437906		1.01484130		0.00061686		-0.00133595		-0.00072445
F		-0.84863886		-1.52734202		0.78117178		0.00230251		0.00070958		-0.00113034
12
Lattice="0.0 0.0 0.0 0.0 0.0 0.0 0.0 0.0 0.0" Properties=species:S:1:pos:R:3:forces:R:3 energy=-44220.97980855 pbc="F F F"
Al		0.34914364		-0.59126607		1.75933783		0.00036626		-0.00433137		0.00116696
Al		2.40639159		-1.79516714		-0.51334133		0.00421806		0.0004683		0.00959534
Al		-0.95118654		-1.83914109		-1.00135478		-0.00338546		-0.00031521		0.00544006
F		3.42582018		-0.56309474		-0.92494151		9.231e-05		0.00085495		0.00081612
F		-1.84336552		-0.64382443		-1.70958787		-0.00216927		0.00212916		-0.0003393
F		2.72406124		-3.41232257		-0.63826637		-0.00117449		0.00038371		5.956e-05
F		-1.17199613		-3.46680716		-1.18555535		0.00088724		-0.0018007		0.00025312
F		1.78594026		-1.51387665		1.16663609		-0.00467846		0.00141741		-0.00469524
F		0.80020795		-1.47957612		-1.28652444		-0.00030333		0.00018176		-0.00884926
F		0.11424220		-0.91408646		3.36018674		0.00058317		0.00150583		-0.00303919
F		0.45114078		0.88674245		1.01870582		0.00063446		-0.00353483		0.00033415
F		-0.84841365		-1.52686203		0.78070616		0.00492952		0.00304098		-0.00074231
12
Lattice="0.0 0.0 0.0 0.0 0.0 0.0 0.0 0.0 0.0" Properties=species:S:1:pos:R:3:forces:R:3 energy=-44220.97610258 pbc="F F F"
Al		0.34851780		-0.59060965		1.76050994		-2.04e-06		-0.0054108		0.00452758
Al		2.40578609		-1.79522781		-0.51422963		0.00587608		-0.00309226		0.01010011
Al		-0.94969616		-1.83884763		-1.00204105		-0.00493978		-0.00439131		0.00517985
F		3.43020212		-0.56862524		-0.92983704		-0.00035373		0.00031632		0.00178868
F		-1.84489588		-0.64631565		-1.71122607		-0.00175802		0.00133995		0.00108447
F		2.71573072		-3.41432407		-0.63500432		-0.00105957		0.00378124		-0.00079078
F		-1.16595372		-3.46740197		-1.18492499		0.00116918		0.00204366		-0.00065271
F		1.78765813		-1.50829634		1.16557329		-0.00637317		0.00274318		-0.00436101
F		0.80064839		-1.47418714		-1.28722818		-0.00068885		-0.00058297		-0.00900023
F		0.11472459		-0.91848430		3.36075723		0.00161012		0.00379372		-0.00998628
F		0.44667469		0.88961706		1.02362967		0.00046989		-0.00533689		0.00220177
F		-0.84741077		-1.52657924		0.78002215		0.0060499		0.00479616		-9.144e-05
12
Lattice="0.0 0.0 0.0 0.0 0.0 0.0 0.0 0.0 0.0" Properties=species:S:1:pos:R:3:forces:R:3 energy=-44220.97574760 pbc="F F F"
Al		0.34773371		-0.58981199		1.76180968		0.00017446		-0.0034338		0.0058737
Al		2.40474105		-1.79531017		-0.51512349		0.00665778		-0.00465585		0.00739015
Al		-0.94756131		-1.83855135		-1.00275378		-0.00584188		-0.00628385		0.00238552
F		3.43644934		-0.57592588		-0.93414601		-0.00175824		-0.00119135		0.00274222
F		-1.84824823		-0.64965869		-1.71132448		0.00011153		-0.00096021		0.00283739
F		2.70378238		-3.41683615		-0.63184773		2.103e-05		0.00581008		-0.00156115
F		-1.15659844		-3.46818696		-1.18531945		0.00060246		0.00525476		-0.00131641
F		1.78927886		-1.50177108		1.16426278		-0.00559276		0.00251713		-0.00267072
F		0.80127172		-1.46663018		-1.28873987		-0.00090317		-0.0009557		-0.00666977
F		0.11537145		-0.92224580		3.36144644		0.00202577		0.00479354		-0.01327244
F		0.44130705		0.89248294		1.02841658		0.00024051		-0.00536069		0.00366351
F		-0.84554158		-1.52683670		0.77932033		0.00426252		0.00446593		0.000598
12
Lattice="0.0 0.0 0.0 0.0 0.0 0.0 0.0 0.0 0.0" Properties=species:S:1:pos:R:3:forces:R:3 energy=-44220.97585247 pbc="F F F"
Al		0.34714936		-0.58915122		1.76248830		0.00081841		9.047e-05		0.0042902
Al		2.40376011		-1.79547409		-0.51557788		0.00704508		-0.00349107		0.00325054
Al		-0.94576989		-1.83845921		-1.00309500		-0.00595575		-0.0048411		-0.00109804
F		3.44180766		-0.58177992		-0.93579446		-0.00377321		-0.00322352		0.00329296
F		-1.85190414		-0.65236486		-1.70962957		0.00222261		-0.00318139		0.00377396
F		2.69371713		-3.41880246		-0.63052903		0.00106212		0.00633729		-0.00163187
F		-1.14819640		-3.46880136		-1.18689920		-0.00034315		0.00592918		-0.001272
F		1.79015517		-1.49731755		1.16340637		-0.00298507		0.00103295		-0.00085783
F		0.80174259		-1.46012178		-1.28993534		-0.00069097		-0.00111976		-0.00384985
F		0.11590417		-0.92342170		3.36180310		0.00155139		0.00385454		-0.010538
F		0.43734661		0.89413142		1.03073070		0.000141		-0.00385552		0.00370549
F		-0.84372637		-1.52771928		0.77903301		0.00090755		0.00246792		0.00093443
12
Lattice="0.0 0.0 0.0 0.0 0.0 0.0 0.0 0.0 0.0" Properties=species:S:1:pos:R:3:forces:R:3 energy=-44220.97573971 pbc="F F F"
Al		0.34680627		-0.58865847		1.76251153		0.00151621		0.0034983		0.00130055
Al		2.40298348		-1.79571442		-0.51561849		0.00680604		-0.00065666		-0.00062421
Al		-0.94450417		-1.83855262		-1.00307216		-0.00532365		-0.00141415		-0.00380548
F		3.44572005		-0.58576655		-0.93523219		-0.0051712		-0.00440489		0.00318538
F		-1.85518790		-0.65422145		-1.70680665		0.00351144		-0.00412889		0.00351092
F		2.68659122		-3.42010346		-0.63089779		0.00174488		0.00519591		-0.00115187
F		-1.14178762		-3.46918009		-1.18926746		-0.00123335		0.00421007		-0.0007029
F		1.79044332		-1.49510712		1.16310381		9.785e-05		-0.00090068		0.00051809
F		0.80200139		-1.45515737		-1.29045653		-0.00022008		-0.00142041		-0.0015492
F		0.11627633		-0.92240500		3.36180395		0.00055965		0.00174548		-0.00409207
F		0.43493775		0.89466978		1.03075478		0.00020785		-0.0016694		0.00251211
F		-0.84229411		-1.52908523		0.77917819		-0.00249564		-5.468e-05		0.00089868
12
Lattice="0.0 0.0 0.0 0.0 0.0 0.0 0.0 0.0 0.0" Properties=species:S:1:pos:R:3:forces:R:3 energy=-44220.97573910 pbc="F F F"
Al		0.34669242		-0.58837634		1.76224874		0.0018332		0.00486817		-0.00060434
Al		2.40259830		-1.79592832		-0.51549017		0.00561625		0.00170745		-0.0024588
Al		-0.94393791		-1.83871124		-1.00292512		-0.00404121		0.00136227		-0.00450112
F		3.44751899		-0.58755087		-0.93408912		-0.00490016		-0.00374658		0.00251538
F		-1.85699158		-0.65507728		-1.70467013		0.00326066		-0.00326349		0.00234696
F		2.68344718		-3.42064699		-0.63177084		0.00201736		0.00298544		-0.00066128
F		-1.13871765		-3.46931624		-1.19104321		-0.00170256		0.00152529		-0.00016847
F		1.79043382		-1.49457019		1.16313095		0.00185579		-0.00214518		0.00106585
F		0.80207725		-1.45272058		-1.29048843		0.00013427		-0.00183448		-0.00031604
F		0.11644781		-0.92099143		3.36163121		-0.0002146		3.579e-05		0.00112977
F		0.43401369		0.89469098		1.03003964		0.00037352		0.00014243		0.0009812
F		-0.84159632		-1.53008350		0.77942746		-0.00423253		-0.00163712		0.00067088
12
Lattice="0.0 0.0 0.0 0.0 0.0 0.0 0.0 0.0 0.0" Properties=species:S:1:pos:R:3:forces:R:3 energy=-44220.97574035 pbc="F F F"
Al		0.34662991		-0.58782131		1.76160914		0.00170029		0.0045189		-0.00122291
Al		2.40222561		-1.79642654		-0.51520791		-0.00116204		0.00516444		-0.0030772
Al		-0.94340195		-1.83913968		-1.00266790		0.00211167		0.00528309		-0.00174794
F		3.44931959		-0.58955600		-0.93175948		-0.00051321		0.00183567		-0.00018827
F		-1.85918932		-0.65612482		-1.70127200		-0.00057279		0.00258439		-0.00218383
F		2.68049581		-3.42119566		-0.63365670		0.00229538		-0.00363167		0.00026035
F		-1.13546743		-3.46943105		-1.19398252		-0.00227696		-0.00564491		0.00079673
F		1.79037191		-1.49451252		1.16339379		0.0024059		-0.00312597		0.00063737
F		0.80214141		-1.45006383		-1.29046758		0.00045484		-0.00336981		0.00278675
F		0.11663178		-0.91832287		3.36129213		-0.00093309		-0.00211232		0.00618019
F		0.43315675		0.89487666		1.02879036		0.00076014		0.0014476		-0.0018038
F		-0.84092807		-1.53156441		0.77992965		-0.00427013		-0.0029494		-0.00043743
12
Lattice="0.0 0.0 0.0 0.0 0.0 0.0 0.0 0.0 0.0" Properties=species:S:1:pos:R:3:forces:R:3 energy=-44220.97574096 pbc="F F F"
Al		0.34651336		-0.58693390		1.76179186		0.00159754		-0.00110773		-0.0019231
Al		2.40227908		-1.79697859		-0.51549597		-0.00895217		0.00743996		-0.00172551
Al		-0.94323653		-1.83963190		-1.00303536		0.00889682		0.00774164		0.00275782
F		3.44988979		-0.59101510		-0.93232964		0.00451341		0.0079579		-0.00286668
F		-1.85948772		-0.65710278		-1.70120850		-0.00488711		0.0087762		-0.00648288
F		2.67985440		-3.42168839		-0.63314025		0.00279414		-0.01030104		0.00058033
F		-1.13499539		-3.46972969		-1.19423326		-0.00279011		-0.01248558		0.00101436
F		1.79053315		-1.49278713		1.16272197		0.00125927		-0.00320355		-0.00030818
F		0.80235062		-1.45037408		-1.29153083		0.00038994		-0.00407952		0.00568633
F		0.11682807		-0.91959938		3.36093718		-0.00161582		-0.00355304		0.01079542
F		0.43213123		0.89710778		1.03216016		0.00135817		0.00591861		-0.00600931
F		-0.84067406		-1.53054884		0.77936364		-0.00256408		-0.00310384		-0.0015186
12
Lattice="0.0 0.0 0.0 0.0 0.0 0.0 0.0 0.0 0.0" Properties=species:S:1:pos:R:3:forces:R:3 energy=-44220.97574103 pbc="F F F"
Al		0.34626344		-0.58497054		1.76263370		0.00053468		-0.00318686		0.00145563
Al		2.40282904		-1.79808178		-0.51631526		-0.02267175		0.00619341		0.00304072
Al		-0.94334564		-1.84050930		-1.00411265		0.02004956		0.00559147		0.01278759
F		3.45067131		-0.59247934		-0.93299572		0.0078627		0.01101397		-0.00582629
F		-1.86011490		-0.65795256		-1.70122877		-0.00665845		0.01156455		-0.00999576
F		2.67954383		-3.42310961		-0.63251773		0.00256345		-0.00761529		0.00179713
F		-1.13471185		-3.47081963		-1.19478841		-0.00309137		-0.00883532		0.00244588
F		1.79107175		-1.49033365		1.16181819		-0.00850518		0.00218392		-0.00526516
F		0.80287410		-1.45213910		-1.29433121		-0.00102776		-0.00551927		0.01524699
F		0.11700598		-0.92186279		3.36179354		0.0015589		0.00153137		-0.01200696
F		0.43064386		0.90205990		1.03744617		0.00049462		-0.01599048		0.00151708
F		-0.84074491		-1.52908360		0.77859914		0.0088906		0.00306851		-0.00519685
12
Lattice="0.0 0.0 0.0 0.0 0.0 0.0 0.0 0.0 0.0" Properties=species:S:1:pos:R:3:forces:R:3 energy=-44220.97574095 pbc="F F F"
Al		0.34549332		-0.58090287		1.76682148		0.00164213		-0.01926351		-0.00800747
Al		2.40428623		-1.79983921		-0.51951824		-0.03023282		0.00777202		0.00812174
Al		-0.94373061		-1.84209886		-1.00768333		0.02598148		0.00756029		0.02070703
F		3.44972707		-0.59542290		-0.94556738		0.0084875		0.01149253		-0.00791452
F		-1.85553285		-0.66064696		-1.71313603		-0.0064628		0.0122269		-0.01178543
F		2.68341480		-3.42534113		-0.62167409		0.00353173		-0.00876628		0.00155289
F		-1.14126159		-3.47305976		-1.18549626		-0.00398669		-0.01068434		0.00161731
F		1.79195103		-1.47776899		1.15560799		-0.01347097		0.00408793		-0.00638425
F		0.80412286		-1.46321775		-1.30157573		-0.00196765		-0.00151667		0.0179534
F		0.11772630		-0.94116648		3.36104785		0.00056802		0.0023509		-0.00649748
F		0.42623723		0.91682276		1.06467206		0.00127248		-0.01069331		-0.00366088
F		-0.84044780		-1.51663984		0.77250269		0.01463759		0.00543355		-0.00570236
12
Lattice="0.0 0.0 0.0 0.0 0.0 0.0 0.0 0.0 0.0" Properties=species:S:1:pos:R:3:forces:R:3 energy=-44222.48477061 pbc="F F F"
Al		0.34467405		-0.57645001		1.77111669		-0.00075427		0.00826131		0.00507012
Al		2.40552743		-1.80193703		-0.52264806		-0.00264009		-0.00402756		0.00122157
Al		-0.94396850		-1.84393538		-1.01108093		0.00086402		-0.00658812		0.00567537
F		3.45001514		-0.59738712		-0.95557569		-0.01545954		-0.01690483		-0.0015324
F		-1.85294855		-0.66231994		-1.72304804		0.01697861		-0.01711276		0.00278409
F		2.68700796		-3.42908892		-0.61333386		-0.00186588		0.03206648		0.00524706
F		-1.14662293		-3.47683932		-1.17849780		-0.00091797		0.0329073		0.00674635
F		1.79176655		-1.46582993		1.14884370		-0.01593704		0.00557439		0.00035158
F		0.80522493		-1.47494290		-1.30781985		-0.00195875		0.00693684		0.01179308
F		0.11818469		-0.95855528		3.36233160		0.00751987		0.01578805		-0.05679317
F		0.42221449		0.93280511		1.08944265		-0.00155389		-0.06443513		0.0193897
F		-0.83908927		-1.50480127		0.76627058		0.01572494		0.00753402		4.665e-05
12
Lattice="0.0 0.0 0.0 0.0 0.0 0.0 0.0 0.0 0.0" Properties=species:S:1:pos:R:3:forces:R:3 energy=-44222.45269396 pbc="F F F"
Al		0.34370123		-0.57219442		1.77690610		-0.00240148		0.02992494		0.01537523
Al		2.40675914		-1.80368807		-0.52674601		0.02794648		-0.01241244		-0.00826402
Al		-0.94406745		-1.84574040		-1.01527621		-0.02536287		-0.01560769		-0.01368247
F		3.44797113		-0.60087800		-0.97541312		-0.03110951		-0.03432727		0.00480391
F		-1.84497432		-0.66605514		-1.74257579		0.03065906		-0.03449741		0.01414358
F		2.69384223		-3.43162639		-0.59693431		-0.00612145		0.05377336		0.00615211
F		-1.15756387		-3.47991293		-1.16322137		0.00244354		0.05540898		0.00827196
F		1.79166083		-1.44729261		1.13867211		-0.00663044		0.00017149		0.01189772
F		0.80642775		-1.49124316		-1.31511656		-0.00013597		0.01475764		-0.0034982
F		0.11900459		-0.98772677		3.36059359		0.00928928		0.02072366		-0.0686705
F		0.41663874		0.95226286		1.12869018		-0.00220724		-0.07925259		0.02433776
F		-0.83741401		-1.48518696		0.75642241		0.00363061		0.00133733		0.0091329
12
Lattice="0.0 0.0 0.0 0.0 0.0 0.0 0.0 0.0 0.0" Properties=species:S:1:pos:R:3:forces:R:3 energy=-44222.42438280 pbc="F F F"
Al		0.34291079		-0.56948400		1.78204655		-0.00286377		0.03641448		0.01865963
Al		2.40778493		-1.80455607		-0.53034129		0.03844271		-0.0139487		-0.01234184
Al		-0.94415436		-1.84687444		-1.01890190		-0.03368764		-0.01622193		-0.02190429
F		3.44439668		-0.60466274		-0.99709659		-0.0298813		-0.03238609		0.00755623
F		-1.83488589		-0.67037246		-1.76362523		0.02795859		-0.03214237		0.01643133
F		2.70096584		-3.43204869		-0.57895848		-0.00715614		0.04886772		0.00406091
F		-1.16950063		-3.48102149		-1.14603375		0.00429975		0.0498035		0.00588353
F		1.79217800		-1.42975581		1.12962726		0.00333678		-0.00474382		0.01754814
F		0.80744667		-1.50542057		-1.32159915		0.00140639		0.01549028		-0.01348601
F		0.11988524		-1.01684220		3.35688887		0.00728515		0.01789873		-0.05284715
F		0.41155682		0.96792471		1.16672370		-0.00149366		-0.06443828		0.01711104
F		-0.83659810		-1.46616824		0.74727101		-0.00764687		-0.00459353		0.01332847
12
Lattice="0.0 0.0 0.0 0.0 0.0 0.0 0.0 0.0 0.0" Properties=species:S:1:pos:R:3:forces:R:3 energy=-44222.42472681 pbc="F F F"
Al		0.34238472		-0.56821867		1.78570246		-0.00276764		0.03336174		0.01781245
Al		2.40851188		-1.80476922		-0.53284583		0.03344866		-0.01111434		-0.01215128
Al		-0.94425516		-1.84738992		-1.02143730		-0.02865168		-0.01216226		-0.02103714
F		3.44072693		-0.60776829		-1.01482583		-0.01947039		-0.02036873		0.00738129
F		-1.82591167		-0.67397947		-1.78060060		0.01717146		-0.02011067		0.01304823
F		2.70658100		-3.43121310		-0.56425417		-0.00611059		0.03109031		0.00119094
F		-1.17918888		-3.48078159		-1.13188256		0.00466846		0.03147773		0.0024622
F		1.79306033		-1.41692105		1.12346725		0.00947764		-0.00722021		0.01723958
F		0.80817638		-1.51505442		-1.32642475		0.00202809		0.01142307		-0.01572254
F		0.12060658		-1.03906955		3.35316698		0.00421885		0.01202915		-0.03023201
F		0.40789623		0.97795572		1.19517929		-0.00048495		-0.04069157		0.00718622
F		-0.83660233		-1.45207245		0.74075605		-0.0135279		-0.00771422		0.01282206
12
Lattice="0.0 0.0 0.0 0.0 0.0 0.0 0.0 0.0 0.0" Properties=species:S:1:pos:R:3:forces:R:3 energy=-44222.42478104 pbc="F F F"
Al		0.34209642		-0.56789892		1.78785034		-0.00211777		0.02346323		0.0128151
Al		2.40896851		-1.80464988		-0.53424801		0.01937733		-0.00583948		-0.00906488
Al		-0.94438248		-1.84750063		-1.02289484		-0.01596329		-0.0058681		-0.01436657
F		3.43787299		-0.60979774		-1.02630940		-0.00602753		-0.00518618		0.00507287
F		-1.81966147		-0.67633286		-1.79142739		0.00429209		-0.00525866		0.006806
F		2.71006828		-3.42999168		-0.55471971		-0.00378502		0.00950494		-0.00119614
F		-1.18537887		-3.47996072		-1.12272732		0.00372172		0.0097808		-0.00058194
F		1.79401053		-1.40948116		1.12029351		0.01120035		-0.00778243		0.01345252
F		0.80862968		-1.52020963		-1.32954214		0.0017907		0.00611838		-0.0121637
F		0.12108596		-1.05249751		3.35049913		0.00112494		0.00557687		-0.00821058
F		0.40579171		0.98288189		1.21205857		0.00050443		-0.0159849		-0.00237137
F		-0.83711526		-1.44384317		0.73716826		-0.01411796		-0.00852446		0.0098087
12
Lattice="0.0 0.0 0.0 0.0 0.0 0.0 0.0 0.0 0.0" Properties=species:S:1:pos:R:3:forces:R:3 energy=-44222.42477583 pbc="F F F"
Al		0.34198782		-0.56795681		1.78873452		-0.00115403		0.01301061		0.00605968
Al		2.40921603		-1.80449482		-0.53476321		0.00595249		-0.00124768		-0.00531111
Al		-0.94451548		-1.84744312		-1.02347101		-0.00417531		-0.0007268		-0.00702701
F		3.43648282		-0.61058133		-1.03097444		0.0033299		0.00510322		0.0026899
F		-1.81692940		-0.67724249		-1.79574714		-0.00431506		0.00477019		0.00178318
F		2.71136640		-3.42919998		-0.55080229		-0.0016216		-0.00514558		-0.00251117
F		-1.18781180		-3.47932682		-1.11899363		0.002418		-0.00485779		-0.00242566
F		1.79466435		-1.40685358		1.11944973		0.00990082		-0.00730662		0.00955008
F		0.80883847		-1.52186182		-1.33101362		0.00118793		0.00263472		-0.00723032
F		0.12128344		-1.05752235		3.34939686		-0.00085114		0.00148161		0.00566709
F		0.40506186		0.98413291		1.21813628		0.00110086		0.00031829		-0.00817165
F		-0.83765852		-1.44093178		0.73604895		-0.01177286		-0.00803417		0.00692698
12
Lattice="0.0 0.0 0.0 0.0 0.0 0.0 0.0 0.0 0.0" Properties=species:S:1:pos:R:3:forces:R:3 energy=-44222.42478139 pbc="F F F"
Al		0.34181758		-0.56826268		1.79024853		0.00210583		-0.01413398		-0.01568083
Al		2.40988105		-1.80411956		-0.53546857		-0.02715584		0.00935932		0.00573567
Al		-0.94500337		-1.84715198		-1.02438143		0.02430321		0.01070006		0.01283127
F		3.43446705		-0.61094019		-1.03661038		0.01865217		0.01996085		-0.00129986
F		-1.81342908		-0.67776745		-1.80087108		-0.01811766		0.01935551		-0.00635655
F		2.71243837		-3.42804040		-0.54581079		0.00317442		-0.02747912		-0.00539292
F		-1.19037448		-3.47828974		-1.11428355		-0.00071417		-0.02727895		-0.00634785
F		1.79627752		-1.40452864		1.11955692		0.00067163		-0.0037864		-0.00245892
F		0.80925266		-1.52305655		-1.33387574		-0.00124711		-0.00511091		0.00957554
F		0.12146194		-1.06298643		3.34860922		-0.00378894		-0.00327314		0.02614073
F		0.40449839		0.98425442		1.22333732		0.00174722		0.02580434		-0.01526175
F		-0.83930162		-1.43839278		0.73555054		0.00036926		-0.00411759		-0.00148455
12
Lattice="0.0 0.0 0.0 0.0 0.0 0.0 0.0 0.0 0.0" Properties=species:S:1:pos:R:3:forces:R:3 energy=-44222.42478286 pbc="F F F"
Al		0.34145232		-0.56888466		1.79352965		0.007837		-0.05600604		-0.05351365
Al		2.41145139		-1.80335159		-0.53686167		-0.07584922		0.02429458		0.02354517
Al		-0.94616831		-1.84642009		-1.02624381		0.06568408		0.02629941		0.04334074
F		3.43147876		-0.60952125		-1.04535498		0.0258327		0.01879833		0.00152176
F		-1.80835114		-0.67666734		-1.80889694		-0.02523557		0.01850835		-0.00521977
F		2.71311355		-3.42734034		-0.53762361		0.00765263		-0.0312716		-0.01203705
F		-1.19352294		-3.47762462		-1.10653727		-0.00277215		-0.0313573		-0.01355371
F		1.80011282		-1.40208955		1.12139341		-0.02757136		0.00730586		-0.03252689
F		0.81023645		-1.52390360		-1.34051332		-0.00783139		-0.02248204		0.05305741
F		0.12148994		-1.07139473		3.34937450		-0.00433273		0.00178496		0.02924994
F		0.40413777		0.98373501		1.22767418		0.00103762		0.03596441		-0.01182876
F		-0.84344460		-1.43581925		0.73606087		0.03554838		0.00816109		-0.0220352
12
Lattice="0.0 0.0 0.0 0.0 0.0 0.0 0.0 0.0 0.0" Properties=species:S:1:pos:R:3:forces:R:3 energy=-44222.42478095 pbc="F F F"
Al		0.34111968		-0.56953300		1.79652365		0.00850393		-0.06087772		-0.05827261
Al		2.41269846		-1.80260794		-0.53810746		-0.07494698		0.02298172		0.02409256
Al		-0.94702557		-1.84563709		-1.02784697		0.06460951		0.02425721		0.04318672
F		3.42968423		-0.60616457		-1.05272053		-0.00417212		-0.02749912		0.02251597
F		-1.80488839		-0.67361998		-1.81587404		-0.00062884		-0.02646284		0.02418169
F		2.71301113		-3.42881784		-0.53061874		0.00120686		0.02711439		-0.01908455
F		-1.19551647		-3.47903089		-1.09981096		0.00423864		0.02679629		-0.01832232
F		1.80421045		-1.40075192		1.12402049		-0.06020727		0.01991764		-0.06434644
F		0.81130914		-1.52397187		-1.34765696		-0.01501607		-0.0396193		0.09988511
F		0.12123121		-1.07904016		3.35211588		0.0030887		0.02664118		-0.02417169
F		0.40416834		0.98436394		1.22864577		-0.00206209		-0.01532082		0.01371318
F		-0.84801622		-1.43447069		0.73733086		0.07538573		0.02207138		-0.04337762
12
Lattice="0.0 0.0 0.0 0.0 0.0 0.0 0.0 0.0 0.0" Properties=species:S:1:pos:R:3:forces:R:3 energy=-44222.42478118 pbc="F F F"
Al		0.34097396		-0.57080309		1.79800285		-0.01028081		0.0550159		0.06289354
Al		2.41220282		-1.80163184		-0.53869313		0.09304485		-0.02954655		-0.03697054
Al		-0.94632380		-1.84452850		-1.02828220		-0.07867774		-0.03280956		-0.06376868
F		3.43051438		-0.59759799		-1.05980520		-0.14914278		-0.21073556		0.10263096
F		-1.80411244		-0.66534571		-1.82322708		0.12114805		-0.20591171		0.14371332
F		2.71198471		-3.43654952		-0.52441362		-0.04154348		0.27359467		-0.02753746
F		-1.19623049		-3.48659185		-1.09353824		0.04183471		0.27358005		-0.01523011
F		1.80996912		-1.40079064		1.12889390		-0.1072535		0.03581103		-0.10710993
F		0.81280367		-1.52278191		-1.35750924		-0.0246651		-0.05740333		0.16297955
F		0.12029409		-1.08827102		3.35962343		0.03504152		0.1117072		-0.25203837
F		0.40474559		0.99024667		1.22460178		-0.01178198		-0.25304495		0.10156741
F		-0.85483561		-1.43463661		0.74034775		0.13227625		0.0397428		-0.07112969
12
Lattice="0.0 0.0 0.0 0.0 0.0 0.0 0.0 0.0 0.0" Properties=species:S:1:pos:R:3:forces:R:3 energy=-44222.42478131 pbc="F F F"
Al		0.33892712		-0.56292242		1.81262858		0.18364125		-1.08956072		-1.18444205
Al		2.42845942		-1.80486866		-0.54534873		-1.49080574		0.44062652		0.56460803
Al		-0.96022317		-1.84810688		-1.03937288		1.26171489		0.47294903		0.96446762
F		3.41076436		-0.63747102		-1.05317655		0.93136228		1.06497828		-0.45840526
F		-1.78635489		-0.70493193		-1.81145476		-0.79019805		1.04433868		-0.70940418
F		2.71606153		-3.38809283		-0.52337931		0.29844799		-1.45914759		-0.01506404
F		-1.20156766		-3.43830428		-1.09428545		-0.245231		-1.46450924		-0.09211077
F		1.79408305		-1.39365090		1.11035151		0.01339542		0.01742702		-0.00505331
F		0.80933985		-1.53057871		-1.33390595		-0.00203145		-0.05588011		0.01033104
F		0.12539421		-1.06942669		3.32299021		-0.1966059		-0.44534066		1.39623605
F		0.40128222		0.94609148		1.25389677		0.04879554		1.45614451		-0.46214308
F		-0.83418004		-1.42701915		0.72705755		-0.01248524		0.01797429		-0.00902004
12
Lattice="0.0 0.0 0.0 0.0 0.0 0.0 0.0 0.0 0.0" Properties=species:S:1:pos:R:3:forces:R:3 energy=-44222.42478129 pbc="F F F"
Al		0.34331598		-0.58032632		1.78243681		-0.20906365		1.0520093		1.34863692
Al		2.39093347		-1.79590431		-0.53447484		1.69991101		-0.47162078		-0.60036881
Al		-0.92701123		-1.83841745		-1.01764887		-1.44860747		-0.50999818		-1.06082441
F		3.44886435		-0.53300696		-1.09026902		-1.26037646		-1.54510435		0.70350328
F		-1.81378425		-0.60038226		-1.85671337		1.04492351		-1.51744597		1.03819151
F		2.71159726		-3.50632085		-0.49882817		-0.42096901		2.07975906		-0.07994842
F		-1.20153072		-3.55645694		-1.06869794		0.37404549		2.08951054		0.0350971
F		1.84940040		-1.40726090		1.16599106		-0.41186065		0.12290679		-0.38362469
F		0.82216553		-1.51369687		-1.42222889		-0.07704173		-0.13479326		0.54671747
F		0.11321102		-1.14303483		3.41014231		0.27599893		0.73985279		-1.95470611
F		0.40797046		1.05816194		1.19109014		-0.0688033		-2.03925259		0.65880041
F		-0.90314626		-1.44263625		0.76520177		0.50184333		0.13417667		-0.25147424
12
Lattice="0.0 0.0 0.0 0.0 0.0 0.0 0.0 0.0 0.0" Properties=species:S:1:pos:R:3:forces:R:3 energy=-44229.09309307 pbc="F F F"
Al		0.34975397		-0.59223478		1.75882825		0.00055905		0.00042954		-0.00040062
Al		2.40624850		-1.79452037		-0.51255678		-2.135e-05		-0.00018423		5.967e-05
Al		-0.95192895		-1.83895398		-1.00094282		0.0004534		-0.0003551		-0.00021911
F		3.42253506		-0.55800660		-0.91873682		-0.00054464		-0.00055518		0.00026423
F		-1.84395696		-0.64234696		-1.70744157		0.00014504		-0.00044384		-0.00025861
F		2.72880021		-3.41043870		-0.64113794		7.413e-05		0.00068254		-0.00019967
F		-1.17450367		-3.46650971		-1.18480658		3.76e-05		0.00014809		0.00037058
F		1.78313369		-1.51992619		1.16711302		0.00024198		-0.00077769		-0.00049259
F		0.80012216		-1.48297448		-1.28895729		-0.00026106		0.00068854		0.000551
F		0.11363933		-0.90945819		3.36042057		-0.00012664		-0.00032113		0.00069433
F		0.45655466		0.88288077		1.01328287		0.00030356		0.00093705		-2.934e-05
F		-0.84841199		-1.52679281		0.78093609		-0.00086106		-0.00024858		-0.00033987
12
Lattice="0.0 0.0 0.0 0.0 0.0 0.0 0.0 0.0 0.0" Properties=species:S:1:pos:R:3:forces:R:3 energy=-44222.93506830 pbc="F F F"
Al		0.34974414		-0.59227025		1.75863630		0.00068272		0.00096266		-0.00137664
Al		2.40632663		-1.79459107		-0.51243573		3.143e-05		0.00148312		0.001143
Al		-0.95199133		-1.83901613		-1.00082189		8.03e-05		0.00130388		0.00023794
F		3.42260422		-0.55803671		-0.91849173		-0.00051804		-0.0003663		0.00014931
F		-1.84396173		-0.64204523		-1.70678873		0.00025567		-0.00054805		-0.00029624
F		2.72894038		-3.41040594		-0.64144487		0.00025873		-0.00090869		9.674e-05
F		-1.17463775		-3.46640596		-1.18563498		-0.00018434		-0.00111583		0.00067671
F		1.78329247		-1.51993924		1.16733889		0.0004874		-0.00130533		-0.0013111
F		0.80008820		-1.48308454		-1.28845772		-0.00026539		0.00114986		-0.00054426
F		0.11368869		-0.90879614		3.36031547		-0.00037318		-0.00088719		0.00244242
F		0.45629852		0.88261386		1.01260931		0.00036642		0.00099392		-0.0004016
F		-0.84840645		-1.52730465		0.78117667		-0.0008217		-0.00076205		-0.00081626
12
Lattice="0.0 0.0 0.0 0.0 0.0 0.0 0.0 0.0 0.0" Properties=species:S:1:pos:R:3:forces:R:3 energy=-44221.06606773 pbc="F F F"
Al		0.34970024		-0.59215091		1.75847921		0.000815		0.00062465		-0.00210564
Al		2.40645347		-1.79476961		-0.51241625		0.00056055		0.00327414		0.00348303
Al		-0.95205392		-1.83914841		-1.00074940		-0.00060256		0.00302942		0.00157836
F		3.42276281		-0.55840978		-0.91890815		-0.00022369		0.00022543		8.6e-06
F		-1.84371341		-0.64194281		-1.70664770		-0.0002613		0.00010953		-0.00060015