------------------------------------------------------------
          Invoking FHI-aims ...

          When using FHI-aims, please cite the following reference:

            Volker Blum, Ralf Gehrke, Felix Hanke, Paula Havu,
            Ville Havu, Xinguo Ren, Karsten Reuter, and Matthias Scheffler,
            'Ab Initio Molecular Simulations with Numeric Atom-Centered Orbitals',
            Computer Physics Communications 180, 2175-2196 (2009)

          In addition, many other developments in FHI-aims are likely important for
          your particular application. A partial list of references is given at the end of
          this file. Thank you for giving credit to the authors of these developments.

          For any questions about FHI-aims, please visit our slack channel at

            https://fhi-aims.slack.com

          and our main development and support site at

            https://aims-git.rz-berlin.mpg.de .

          The latter site, in particular, has a wiki to collect information, as well
          as an issue tracker to log discussions, suggest improvements, and report issues
          or bugs. https://aims-git.rz-berlin.mpg.de is also the main development site
          of the project and all new and updated code versions can be obtained there.
          Please send an email to aims-coordinators@fhi-berlin.mpg.de and we will add
          you to these sites. They are for you and everyone is welcome there.

------------------------------------------------------------



  Date     :  20211214, Time     :  141449.640
  Time zero on CPU 1             :   0.525990000000000E-01  s.
  Internal wall clock time zero  :           408723289.640  s.

  FHI-aims created a unique identifier for this run for later identification
  aims_uuid : 8A671F62-7719-4F96-AA7E-A59A38375C16

  Build configuration of the current instance of FHI-aims
  -------------------------------------------------------
  FHI-aims version      : 210914
  Commit number         : GITDIR-NOTFOUND
  CMake host system     : Linux-3.10.0-693.17.1.el7.x86_64
  CMake version         : 3.21.1
  Fortran compiler      : /shared/ucl/apps/intel/2018.Update3/impi/2018.3.222/intel64/bin/mpiifort (Intel) version 18.0.3.20180410
  Fortran compiler flags: -O3 -ip -fp-model precise
  C compiler            : /shared/ucl/apps/intel/2018.Update3/compilers_and_libraries_2018.3.222/linux/bin/intel64/icc (Intel) version 18.0.3.20180410
  C compiler flags      : -O3 -ip -fp-model precise -std=gnu99
  ELPA2 kernel          : AVX2
  Using MPI
  Using ScaLAPACK
  Using LibXC
  Using i-PI
  Using RLSY
  Linking against: /shared/ucl/apps/intel/2019.Update5/compilers_and_libraries_2019.5.281/linux/mkl/lib/intel64/libmkl_intel_lp64.so
                   /shared/ucl/apps/intel/2019.Update5/compilers_and_libraries_2019.5.281/linux/mkl/lib/intel64/libmkl_sequential.so
                   /shared/ucl/apps/intel/2019.Update5/compilers_and_libraries_2019.5.281/linux/mkl/lib/intel64/libmkl_core.so
                   /shared/ucl/apps/intel/2019.Update5/compilers_and_libraries_2019.5.281/linux/mkl/lib/intel64/libmkl_blacs_intelmpi_lp64.so
                   /shared/ucl/apps/intel/2019.Update5/compilers_and_libraries_2019.5.281/linux/mkl/lib/intel64/libmkl_scalapack_lp64.so

  Using       24 parallel tasks.
  Task        0 on host node-k98e-005 reporting.
  Task        1 on host node-k98e-005 reporting.
  Task        2 on host node-k98e-005 reporting.
  Task        3 on host node-k98e-005 reporting.
  Task        4 on host node-k98e-005 reporting.
  Task        5 on host node-k98e-005 reporting.
  Task        6 on host node-k98e-005 reporting.
  Task        7 on host node-k98e-005 reporting.
  Task        8 on host node-k98e-005 reporting.
  Task        9 on host node-k98e-005 reporting.
  Task       10 on host node-k98e-005 reporting.
  Task       11 on host node-k98e-005 reporting.
  Task       12 on host node-k98e-005 reporting.
  Task       13 on host node-k98e-005 reporting.
  Task       14 on host node-k98e-005 reporting.
  Task       15 on host node-k98e-005 reporting.
  Task       16 on host node-k98e-005 reporting.
  Task       17 on host node-k98e-005 reporting.
  Task       18 on host node-k98e-005 reporting.
  Task       19 on host node-k98e-005 reporting.
  Task       20 on host node-k98e-005 reporting.
  Task       21 on host node-k98e-005 reporting.
  Task       22 on host node-k98e-005 reporting.
  Task       23 on host node-k98e-005 reporting.

  Performing system and environment tests:
  | Environment variable OMP_NUM_THREADS correctly set to 1.
  | Checking for ScaLAPACK...
  | Testing pdtran()...
  | All pdtran() tests passed.

  Obtaining array dimensions for all initial allocations:
  
  -----------------------------------------------------------------------
  Parsing control.in (first pass over file, find array dimensions only).
  The contents of control.in will be repeated verbatim below
  unless switched off by setting 'verbatim_writeout .false.' .
  in the first line of control.in .
  -----------------------------------------------------------------------
  
  #########################################################################################  Physical model
  #########################################################################################
  xc                 pbesol
  spin               none
  relativistic       atomic_zora scalar
  charge             0.0
  #  SCF convergence
  occupation_type    gaussian 0.01
  mixer              pulay
  n_max_pulay        10
  charge_mix_param   0.5
  sc_accuracy_rho    1E-5
  sc_accuracy_eev    1E-3
  sc_accuracy_etot   1E-6
  sc_accuracy_forces 1E-4
  sc_iter_limit      1500
  #  Relaxation
  relax_geometry   bfgs 1.e-3
  
  ################################################################################
  #
  #  FHI-aims code project
  #  VB, Fritz-Haber Institut, 2009
  #
  #  Suggested "light" defaults for Al atom (to be pasted into control.in file)
  #  Be sure to double-check any results obtained with these settings for post-processing,
  #  e.g., with the "tight" defaults and larger basis sets.
  #
  ################################################################################
    species        Al
  #     global species definitions
      nucleus             13
      mass                26.9815386
  #
      l_hartree           4
  #
      cut_pot             3.5          1.5  1.0
      basis_dep_cutoff    1e-4
  #
      radial_base         41 5.0
      radial_multiplier   1
      angular_grids       specified
        division   0.6594  110
        division   0.8170  194
        division   0.9059  302
  #      division   1.0363  434
  #      division   1.1443  590
  #      division   1.2621  770
  #      division   2.8177  974
  #      outer_grid   974
        outer_grid   302
  ################################################################################
  #
  #  Definition of "minimal" basis
  #
  ################################################################################
  #     valence basis states
      valence      3  s   2.
      valence      3  p   1.
  #     ion occupancy
      ion_occ      3  s   1.
      ion_occ      2  p   6.
  ################################################################################
  #
  #  Suggested additional basis functions. For production calculations,
  #  uncomment them one after another (the most important basis functions are
  #  listed first).
  #
  #  Constructed for dimers: 2.0 A, 2.5 A, 3.0 A, 3.75 A, 4.5 A
  #
  ################################################################################
  #  "First tier" - improvements: -199.47 meV to -10.63 meV
       ionic 3 d auto
       ionic 3 p auto
  #     hydro 4 f 4.7
       ionic 3 s auto
  #  "Second tier" - improvements: -5.35 meV to -1.57 meV
  #     hydro 5 g 7
  #     hydro 3 d 6
  #     hydro 2 s 11.6
  #     hydro 2 p 0.9
  #  "Third tier" - improvements: -0.63 meV to -0.20 meV
  #     hydro 5 f 7.6
  #     hydro 4 p 7.2
  #     hydro 4 s 3.7
  #     hydro 4 d 7.6
  #  "Fourth tier" - improvements: -0.17 meV to -0.08 meV
  #     hydro 4 d 13.6
  #     hydro 5 g 11.2
  #     hydro 4 d 0.9
  #     hydro 1 s 0.4
  #     hydro 4 p 0.1
  #     hydro 5 f 9.8
  #  Further basis functions that fell out of the optimization - noise level...
  #     hydro 4 p 5
  
  ################################################################################
  #
  #  FHI-aims code project
  #  VB, Fritz-Haber Institut, 2009
  #
  #  Suggested "light" defaults for F atom (to be pasted into control.in file)
  #  Be sure to double-check any results obtained with these settings for post-processing,
  #  e.g., with the "tight" defaults and larger basis sets.
  #
  ################################################################################
    species        F
  #     global species definitions
      nucleus             9
      mass                18.9984032
  #
      l_hartree           4
  #
      cut_pot             3.5  1.5  1.0
      basis_dep_cutoff    1e-4
  #
      radial_base         37 5.0
      radial_multiplier   1
      angular_grids specified
        division   0.4014  110
        division   0.5291  194
        division   0.6019  302
  #      division   0.6814  434
  #      division   0.7989  590
  #      division   0.8965  770
  #      division   1.3427  974
  #      outer_grid   974
        outer_grid   302
  ################################################################################
  #
  #  Definition of "minimal" basis
  #
  ################################################################################
  #     valence basis states
      valence      2  s   2.
      valence      2  p   5.
  #     ion occupancy
      ion_occ      2  s   1.
      ion_occ      2  p   4.
  ################################################################################
  #
  #  Suggested additional basis functions. For production calculations,
  #  uncomment them one after another (the most important basis functions are
  #  listed first).
  #
  #  Constructed for dimers: 1.2 A, 1.418 A, 1.75 A, 2.25 A, 3.25 A
  #
  ################################################################################
  #  "First tier" - improvements: -149.44 meV to -45.88 meV
       hydro 2 p 1.7
       hydro 3 d 7.4
       hydro 3 s 6.8
  #  "Second tier" - improvements: -12.96 meV to -1.56 meV
  #     hydro 4 f 11.2
  #     ionic 2 p auto
  #     hydro 1 s 0.75
  #     hydro 4 d 8.8
  #     hydro 5 g 16.8
  #  "Third tier" - improvements: -0.58 meV to -0.05 meV
  #     hydro 3 p 6.2
  #     hydro 3 s 3.2
  #     hydro 4 f 9.6
  #     hydro 3 s 19.6
  #     hydro 4 d 8.6
  #     hydro 5 g 14.4
  # Further basis functions: -0.05 meV and below
  #     hydro 3 p 4.2
  
  -----------------------------------------------------------------------
  Completed first pass over input file control.in .
  -----------------------------------------------------------------------
  
  
  -----------------------------------------------------------------------
  Parsing geometry.in (first pass over file, find array dimensions only).
  The contents of geometry.in will be repeated verbatim below
  unless switched off by setting 'verbatim_writeout .false.' .
  in the first line of geometry.in .
  -----------------------------------------------------------------------
  
  #src_path:/scratch/scratch/uccatka/work/AlF3/clusters/rq/n3/n3_rq/ranked/002//scratch/scratch/uccatka/work/AlF3/clusters/rq/n3/n3_rq
  atom       0.349679   -0.597930    1.740024   Al
  atom       2.350485   -1.788432   -0.519334   Al
  atom      -0.892905   -1.830090   -0.991826   Al
  atom       3.476208   -0.496313   -1.113172    F
  atom      -1.834593   -0.564568   -1.886894    F
  atom       2.736731   -3.562038   -0.491032    F
  atom      -1.226422   -3.612948   -1.068316    F
  atom       1.896704   -1.413959    1.210791    F
  atom       0.831810   -1.508493   -1.489274    F
  atom       0.108904   -1.170228    3.443121    F
  atom       0.406488    1.136304    1.197458    F
  atom      -0.961103   -1.450587    0.794455    F
  
  -----------------------------------------------------------------------
  Completed first pass over input file geometry.in .
  -----------------------------------------------------------------------
  

  Basic array size parameters:
  | Number of species                 :        2
  | Number of atoms                   :       12
  | Max. basis fn. angular momentum   :        2
  | Max. atomic/ionic basis occupied n:        3
  | Max. number of basis fn. types    :        3
  | Max. radial fns per species/type  :        5
  | Max. logarithmic grid size        :     1340
  | Max. radial integration grid size :       41
  | Max. angular integration grid size:      302
  | Max. angular grid division number :        8
  | Radial grid for Hartree potential :     1340
  | Number of spin channels           :        1

------------------------------------------------------------
          Reading file control.in.
------------------------------------------------------------
  XC: Using PBEsol gradient-corrected functionals.
  Spin treatment: No spin polarisation.
  Scalar relativistic treatment of kinetic energy: on-site free-atom approximation to ZORA.
  Charge =   0.000000E+00: Neutral system requested explicitly.
  Occupation type: Gaussian broadening, width =   0.100000E-01 eV.
  Using pulay charge density mixing.
  Pulay mixing - number of memorized iterations:   10
  Charge density mixing - mixing parameter:     0.5000
  Convergence accuracy of self-consistent charge density:  0.1000E-04
  Convergence accuracy of sum of eigenvalues:  0.1000E-02
  Convergence accuracy of total energy:  0.1000E-05
  Convergence accuracy of forces:  0.1000E-03
  Maximum number of s.-c. iterations  :  1500
  Geometry relaxation: Modified BFGS - TRM (trust radius method) for lattice optimization.
  Convergence accuracy for geometry relaxation: Maximum force <   0.100000E-02 eV/A.
 
  Reading configuration options for species Al                  .
  | Found nuclear charge :  13.0000
  | Found atomic mass :    26.9815386000000      amu
  | Found l_max for Hartree potential  :   4
  | Found cutoff potl. onset [A], width [A], scale factor :    3.50000    1.50000    1.00000
  | Threshold for basis-dependent cutoff potential is   0.100000E-03
  | Found data for basic radial integration grid :    41 points, outermost radius =    5.000 A
  | Found multiplier for basic radial grid :   1
  | Found angular grid specification: user-specified.
  | Specified grid contains     4 separate shells.
  | Check grid settings after all constraints further below.
  | Found free-atom valence shell :  3 s   2.000
  | Found free-atom valence shell :  3 p   1.000
  | Found free-ion valence shell :  3 s   1.000
  | Found free-ion valence shell :  2 p   6.000
  | Found ionic basis function :  3 d , default cutoff radius.
  | Found ionic basis function :  3 p , default cutoff radius.
  | Found ionic basis function :  3 s , default cutoff radius.
  Species Al                  : Missing cutoff potential type.
  Defaulting to exp(1/x)/(1-x)^2 type cutoff potential.
  Species Al: No 'logarithmic' tag. Using default grid for free atom:
  | Default logarithmic grid data [bohr] : 0.1000E-03 0.1000E+03 0.1012E+01
  | Will include ionic basis functions of  2.0-fold positive Al                   ion.
  Species Al: On-site basis accuracy parameter (for Gram-Schmidt orthonormalisation) not specified.
  Using default value basis_acc =  0.1000000E-03.
  Species Al                  : Using default innermost maximum threshold i_radial=  2 for radial functions.
  Species Al                  : Default cutoff onset for free atom density etc. : 0.35000000E+01 AA.
  Species Al                  : Basic radial grid will be enhanced according to radial_multiplier =   1, to contain    41 grid points.
 
  Reading configuration options for species F                   .
  | Found nuclear charge :   9.0000
  | Found atomic mass :    18.9984032000000      amu
  | Found l_max for Hartree potential  :   4
  | Found cutoff potl. onset [A], width [A], scale factor :    3.50000    1.50000    1.00000
  | Threshold for basis-dependent cutoff potential is   0.100000E-03
  | Found data for basic radial integration grid :    37 points, outermost radius =    5.000 A
  | Found multiplier for basic radial grid :   1
  | Found angular grid specification: user-specified.
  | Specified grid contains     4 separate shells.
  | Check grid settings after all constraints further below.
  | Found free-atom valence shell :  2 s   2.000
  | Found free-atom valence shell :  2 p   5.000
  | Found free-ion valence shell :  2 s   1.000
  | Found free-ion valence shell :  2 p   4.000
  | Found hydrogenic basis function :  2 p   1.700
  | Found hydrogenic basis function :  3 d   7.400
  | Found hydrogenic basis function :  3 s   6.800
  Species F                   : Missing cutoff potential type.
  Defaulting to exp(1/x)/(1-x)^2 type cutoff potential.
  Species F : No 'logarithmic' tag. Using default grid for free atom:
  | Default logarithmic grid data [bohr] : 0.1000E-03 0.1000E+03 0.1012E+01
  Species F : On-site basis accuracy parameter (for Gram-Schmidt orthonormalisation) not specified.
  Using default value basis_acc =  0.1000000E-03.
  Species F                   : Using default innermost maximum threshold i_radial=  2 for radial functions.
  Species F                   : Default cutoff onset for free atom density etc. : 0.35000000E+01 AA.
  Species F                   : Basic radial grid will be enhanced according to radial_multiplier =   1, to contain    37 grid points.
 
  Finished reading input file 'control.in'.
 
------------------------------------------------------------


------------------------------------------------------------
          Reading geometry description geometry.in.
------------------------------------------------------------
  | The smallest distance between any two atoms is         1.81274295 AA.
  | The first atom of this pair is atom number                      1 .
  | The second atom of this pair is atom number                    10 .
  Input structure read successfully.
  The structure contains       12 atoms,  and a total of        120.000 electrons.

  Input geometry:
  | No unit cell requested.
  | Atomic structure:
  |       Atom                x [A]            y [A]            z [A]
  |    1: Species Al            0.34967900       -0.59793000        1.74002400
  |    2: Species Al            2.35048500       -1.78843200       -0.51933400
  |    3: Species Al           -0.89290500       -1.83009000       -0.99182600
  |    4: Species F             3.47620800       -0.49631300       -1.11317200
  |    5: Species F            -1.83459300       -0.56456800       -1.88689400
  |    6: Species F             2.73673100       -3.56203800       -0.49103200
  |    7: Species F            -1.22642200       -3.61294800       -1.06831600
  |    8: Species F             1.89670400       -1.41395900        1.21079100
  |    9: Species F             0.83181000       -1.50849300       -1.48927400
  |   10: Species F             0.10890400       -1.17022800        3.44312100
  |   11: Species F             0.40648800        1.13630400        1.19745800
  |   12: Species F            -0.96110300       -1.45058700        0.79445500

 
  Finished reading input file 'control.in'.
 

------------------------------------------------------------
          Reading geometry description geometry.in.
------------------------------------------------------------
 
  Consistency checks for stacksize environment parameter are next.
 
  | Maximum stacksize for task 0: unlimited
  | Maximum stacksize for task 1: unlimited
  | Maximum stacksize for task 2: unlimited
  | Maximum stacksize for task 3: unlimited
  | Maximum stacksize for task 4: unlimited
  | Maximum stacksize for task 5: unlimited
  | Maximum stacksize for task 6: unlimited
  | Maximum stacksize for task 7: unlimited
  | Maximum stacksize for task 8: unlimited
  | Maximum stacksize for task 9: unlimited
  | Maximum stacksize for task 10: unlimited
  | Maximum stacksize for task 11: unlimited
  | Maximum stacksize for task 12: unlimited
  | Maximum stacksize for task 13: unlimited
  | Maximum stacksize for task 14: unlimited
  | Maximum stacksize for task 15: unlimited
  | Maximum stacksize for task 16: unlimited
  | Maximum stacksize for task 17: unlimited
  | Maximum stacksize for task 18: unlimited
  | Maximum stacksize for task 19: unlimited
  | Maximum stacksize for task 20: unlimited
  | Maximum stacksize for task 21: unlimited
  | Maximum stacksize for task 22: unlimited
  | Maximum stacksize for task 23: unlimited
  | Current stacksize for task 0: unlimited
  | Current stacksize for task 1: unlimited
  | Current stacksize for task 2: unlimited
  | Current stacksize for task 3: unlimited
  | Current stacksize for task 4: unlimited
  | Current stacksize for task 5: unlimited
  | Current stacksize for task 6: unlimited
  | Current stacksize for task 7: unlimited
  | Current stacksize for task 8: unlimited
  | Current stacksize for task 9: unlimited
  | Current stacksize for task 10: unlimited
  | Current stacksize for task 11: unlimited
  | Current stacksize for task 12: unlimited
  | Current stacksize for task 13: unlimited
  | Current stacksize for task 14: unlimited
  | Current stacksize for task 15: unlimited
  | Current stacksize for task 16: unlimited
  | Current stacksize for task 17: unlimited
  | Current stacksize for task 18: unlimited
  | Current stacksize for task 19: unlimited
  | Current stacksize for task 20: unlimited
  | Current stacksize for task 21: unlimited
  | Current stacksize for task 22: unlimited
  | Current stacksize for task 23: unlimited
 
  Consistency checks for the contents of control.in are next.
 
  MPI_IN_PLACE appears to work with this MPI implementation.
  | Keeping use_mpi_in_place .true. (see manual).
  Target number of points in a grid batch is not set. Defaulting to  100
  Method for grid partitioning is not set. Defaulting to parallel hash+maxmin partitioning.
  Batch size limit is not set. Defaulting to    200
  By default, will store active basis functions for each batch.
  If in need of memory, prune_basis_once .false. can be used to disable this option.
  communication_type for Hartree potential was not specified.
  Defaulting to calc_hartree .
  Pulay mixer: Number of initial linear mixing iterations not set.
  Defaulting to    0 iterations.
  Work space size for distributed Hartree potential not set.
  Defaulting to   0.200000E+03 MB.
  Algorithm-dependent basis array size parameters:
  | n_max_pulay                         :       10
  Presetting      1001 iterations before the initial mixing cycle
  is restarted anyway using the sc_init_iter criterion / keyword.
  Presetting a factor      1.000 between actual scf density residual
  and density convergence criterion sc_accuracy_rho below which sc_init_iter
  takes no effect.
  No maximum number of relaxation steps, defaulting to     1000
  Default initial Hessian is Lindh matrix (thres = 15.00) plus  0.200000E+01 eV/A^2 times unity.
  No maximum energy tolerance for TRM/BFGS moves, defaulting to   0.100000E-02
  Maximum energy tolerance by which TRM/BFGS trajectory may increase over multiple steps:   0.300000E-02
  No harmonic length scale. Defaulting to   0.250000E-01 A.
  No trust radius initializer. Defaulting to   0.200000E+00 A.
  Forces evaluation will include force correction term due to incomplete self-consistency (default).
  Handling of forces: Unphysical translation and rotation will be removed from forces.
  No accuracy limit for integral partition fn. given. Defaulting to  0.1000E-14.
  No threshold value for u(r) in integrations given. Defaulting to  0.1000E-05.
  No accuracy for occupation numbers given. Defaulting to  0.1000E-12.
  No threshold value for occupation numbers given. Defaulting to  0.0000E+00.
  No accuracy for fermi level given. Defaulting to  0.1000E-19.
  Maximum # of iterations to find E_F not set. Defaulting to  200.
  Preferred method for the eigenvalue solver ('KS_method') not specified in 'control.in'.
  Calling BLACS routine to test compilation state
  Since ScaLAPACK support is enabled, defaulting to ELPA (via ELSI).
  Will not use alltoall communication since running on < 1024 CPUs.
  Threshold for basis singularities not set.
  Default threshold for basis singularities:  0.1000E-04
  partition_type (choice of integration weights) for integrals was not specified.
  | Using a version of the partition function of Stratmann and coworkers ('stratmann_sparse').
  | At each grid point, the set of atoms used to build the partition table is smoothly restricted to
  | only those atoms whose free-atom density would be non-zero at that grid point.
  Partitioning for Hartree potential was not defined. Using partition_type for integrals.
  | Adjusted default value of keyword multip_moments_threshold to:       0.10000000E-11
  | This value may affect high angular momentum components of the Hartree potential in periodic systems.
  No q(lm)/r^(l+1) cutoff set for long-range Hartree potential.
  | Using default value of  0.100000E-09 .
  | Verify using the multipole_threshold keyword.
  Defaulting to new monopole extrapolation.
  Density update method: automatic selection selected.
  Geometry relaxation: A file "geometry.in.next_step" is written out by default after each step.
  | This file contains the geometry of the current relaxation step as well as
  | the current Hessian matrix needed to restart the relaxation algorithm.
  | If you do not want part or all of this information, use the keywords
  | "write_restart_geometry" or "hessian_to_restart_geometry" to switch the output off.
  Charge integration errors on the 3D integration grid will be compensated
  by explicit normalization and distribution of residual charges.
  Use the "compensate_multipole_errors" flag to change this behaviour.
  Set 'collect_eigenvectors' to be '.true.' for use_density_matrix .false.
 
  Consistency checks for the contents of geometry.in are next.
 
  Number of empty states per atom not set in control.in - providing a guess from actual geometry.
  | Total number of empty states used during s.c.f. cycle:       36
  If you use a very high smearing, use empty_states (per atom!) in control.in to increase this value.

  Structure-dependent array size parameters: 
  | Maximum number of distinct radial functions  :       14
  | Maximum number of basis functions            :      180
  | Number of Kohn-Sham states (occupied + empty):       96
------------------------------------------------------------

------------------------------------------------------------
          Preparing all fixed parts of the calculation.
------------------------------------------------------------
  Determining machine precision:
    2.225073858507201E-308
  Setting up grids for atomic and cluster calculations.

  Creating wave function, potential, and density for free atoms.

  Species: Al

  List of occupied orbitals and eigenvalues:
    n    l              occ      energy [Ha]    energy [eV]
    1    0           2.0000       -55.621123     -1513.5278
    2    0           2.0000        -3.957030      -107.6763
    3    0           2.0000        -0.272233        -7.4078
    2    1           6.0000        -2.540949       -69.1427
    3    1           1.0000        -0.083300        -2.2667


  Species: F

  List of occupied orbitals and eigenvalues:
    n    l              occ      energy [Ha]    energy [eV]
    1    0           2.0000       -24.399611      -663.9472
    2    0           2.0000        -1.098702       -29.8972
    2    1           5.0000        -0.408210       -11.1080


  Adding cutoff potential to free-atom effective potential.
  Creating fixed part of basis set: Ionic, confined, hydrogenic.
 
  Al                   ion:

  List of free ionic orbitals and eigenvalues:
    n    l      energy [Ha]    energy [eV]
    1    0       -56.418846     -1535.2349
    2    0        -4.732717      -128.7838
    3    0        -0.872690       -23.7471
    2    1        -3.317230       -90.2664


  List of ionic basis orbitals and eigenvalues:
    n    l      energy [Ha]    energy [eV]    outer radius [A]
    3    2        -0.346815        -9.4373       4.594041
    3    1        -0.631870       -17.1940       4.538221
    3    0        -0.872657       -23.7462       4.538221

 
  F                    hydrogenic:
 
  List of hydrogenic basis orbitals: 
    n    l      effective z      eigenvalue [eV]  inner max. [A]     outer max. [A]     outer radius [A]   
    2    1         1.700000        -9.7616           1.243167           1.243167           4.598524
    3    2         7.400000       -82.7828           0.642437           0.642437           3.305741
    3    0         6.800000       -69.9026           0.057798           1.022307           3.781556
 
  Creating atomic-like basis functions for current effective potential.

  Species Al                  :

  List of atomic basis orbitals and eigenvalues:
    n    l      energy [Ha]    energy [eV]    outer radius [A]
    1    0       -55.621123     -1513.5278       0.850197
    2    0        -3.957030      -107.6763       3.144911
    3    0        -0.272233        -7.4078       4.594041
    2    1        -2.540949       -69.1427       3.731966
    3    1        -0.083300        -2.2667       4.594041


  Species F                   :

  List of atomic basis orbitals and eigenvalues:
    n    l      energy [Ha]    energy [eV]    outer radius [A]
    1    0       -24.399611      -663.9472       1.258458
    2    0        -1.098702       -29.8972       4.325857
    2    1        -0.408210       -11.1080       4.487453

  Assembling full basis from fixed parts.
  | Species Al :   atomic orbital   1 s accepted.
  | Species Al :   atomic orbital   2 s accepted.
  | Species Al :    ionic orbital   3 s accepted.
  | Species Al :   atomic orbital   3 s accepted.
  | Species Al :   atomic orbital   2 p accepted.
  | Species Al :    ionic orbital   3 p accepted.
  | Species Al :   atomic orbital   3 p accepted.
  | Species Al :    ionic orbital   3 d accepted.
  | Species F :   atomic orbital   1 s accepted.
  | Species F :    hydro orbital   3 s accepted.
  | Species F :   atomic orbital   2 s accepted.
  | Species F :   atomic orbital   2 p accepted.
  | Species F :    hydro orbital   2 p accepted.
  | Species F :    hydro orbital   3 d accepted.
 
  Basis size parameters after reduction:
  | Total number of radial functions:       14
  | Total number of basis functions :      180
 
  Per-task memory consumption for arrays in subroutine allocate_ext:
  |           4.807768MB.
  Testing on-site integration grid accuracy.
  |  Species  Function  <phi|h_atom|phi> (log., in eV)  <phi|h_atom|phi> (rad., in eV)
           1        1              -1513.5277717935              -1513.5271881332
           1        2               -107.6762691836               -107.6762662489
           1        3                 -6.9467474784                 -6.9471269649
           1        4                  5.5771951849                  5.4862107220 ***
           1        5                -69.1427313144                -69.1427312731
           1        6                 -1.5197375330                 -1.5230432022
           1        7                  6.8210948310                  6.5529872240 ***
           1        8                  4.3216540965                  4.2851170187 ***
           2        9               -663.9471986398               -663.9470363334
           2       10                 16.8514011578                 16.8512525338
           2       11                -28.4490593856                -28.4490661472
           2       12                -11.1080115307                -11.1080620173
           2       13                  7.1940182175                  7.1685154137
           2       14                 44.8544281765                 44.8543763625
 * Note: Onsite integrals marked "***" above are less accurate than
 * onsite_accuracy_threshold =    0.03000 eV. Usually, this is harmless.
 * When in doubt, tighten the "radial" and/or "radial_multiplier" flags to check.

  Preparing densities etc. for the partition functions (integrals / Hartree potential).

  Preparations completed.
  max(cpu_time)          :      0.185 s.
  Wall clock time (cpu1) :      0.185 s.
------------------------------------------------------------

------------------------------------------------------------
          Begin self-consistency loop: Initialization.

          Date     :  20211214, Time     :  141449.874
------------------------------------------------------------

  Initializing index lists of integration centers etc. from given atomic structure:
  | Number of centers in hartree potential         :        12
  | Number of centers in hartree multipole         :        12
  | Number of centers in electron density summation:        12
  | Number of centers in basis integrals           :        12
  | Number of centers in integrals                 :        12
  | Number of centers in hamiltonian               :        12

  Initializing relaxation algorithms.
  Finished initialization of distributed Hessian storage.
  | Global dimension:        36
  | BLACS block size:         2
  | Number of workers:       18

  * Using 24 tasks for Scalapack Eigenvalue solver.
  Detailed listing of tasks and assigned k-points:
  (for non-periodic systems, the "k-point" denotes an internal label only)
   Task     0 k-point     1 on node-k98e-005
   Task     1 k-point     1 on node-k98e-005
   Task     2 k-point     1 on node-k98e-005
   Task     3 k-point     1 on node-k98e-005
   Task     4 k-point     1 on node-k98e-005
   Task     5 k-point     1 on node-k98e-005
   Task     6 k-point     1 on node-k98e-005
   Task     7 k-point     1 on node-k98e-005
   Task     8 k-point     1 on node-k98e-005
   Task     9 k-point     1 on node-k98e-005
   Task    10 k-point     1 on node-k98e-005
   Task    11 k-point     1 on node-k98e-005
   Task    12 k-point     1 on node-k98e-005
   Task    13 k-point     1 on node-k98e-005
   Task    14 k-point     1 on node-k98e-005
   Task    15 k-point     1 on node-k98e-005
   Task    16 k-point     1 on node-k98e-005
   Task    17 k-point     1 on node-k98e-005
   Task    18 k-point     1 on node-k98e-005
   Task    19 k-point     1 on node-k98e-005
   Task    20 k-point     1 on node-k98e-005
   Task    21 k-point     1 on node-k98e-005
   Task    22 k-point     1 on node-k98e-005
   Task    23 k-point     1 on node-k98e-005
  Tasks:    24 split into      6 X      4 BLACS grid
  Calculating block size based on n_basis =          180  max_nprow =            6  max_npcol =            4
  ScaLAPACK block size set to:           16
  Allocating        0.012 MB for ovlp
  Allocating        0.012 MB for ham
  Allocating        0.012 MB for eigenvec
  Required Scalapack workspace - INTEGER:            1  REAL:             1
  Partitioning the integration grid into batches with parallel hashing+maxmin method.
  | Number of batches:     1041
  | Maximal batch size:     200
  | Minimal batch size:      17
  | Average batch size:      88.300
  | Standard deviation of batch sizes:      23.281

  Integration load balanced across    24 MPI tasks.
  Work distribution over tasks is as follows:
  Task     0 has       3918 integration points.
  Task     1 has       3842 integration points.
  Task     2 has       3829 integration points.
  Task     3 has       3909 integration points.
  Task     4 has       3758 integration points.
  Task     5 has       3790 integration points.
  Task     6 has       3835 integration points.
  Task     7 has       3796 integration points.
  Task     8 has       3881 integration points.
  Task     9 has       3786 integration points.
  Task    10 has       3838 integration points.
  Task    11 has       3821 integration points.
  Task    12 has       3760 integration points.
  Task    13 has       3773 integration points.
  Task    14 has       3912 integration points.
  Task    15 has       3844 integration points.
  Task    16 has       3914 integration points.
  Task    17 has       3831 integration points.
  Task    18 has       3837 integration points.
  Task    19 has       3839 integration points.
  Task    20 has       3829 integration points.
  Task    21 has       3775 integration points.
  Task    22 has       3767 integration points.
  Task    23 has       3836 integration points.
  Initializing partition tables, free-atom densities, potentials, etc. across the integration grid (initialize_grid_storage).
  | initialize_grid_storage: Actual outermost partition radius vs. multipole_radius_free
  | (-- VB: in principle, multipole_radius_free should be larger, hence this output)
  | Species        1: Confinement radius =              4.999999999999999 AA, multipole_radius_free =              5.004487022111096 AA.
  | Species        1: outer_partition_radius set to              5.004487022111096 AA .
  | Species        2: Confinement radius =              4.999999999999999 AA, multipole_radius_free =              5.009370088163274 AA.
  | Species        2: outer_partition_radius set to              5.009370088163274 AA .
  | The sparse table of interatomic distances needs          1.64 kbyte instead of         1.15 kbyte of memory.
  | Using the partition_type stratmann_smoother will reduce your memory usage.
  | Net number of integration points:    91920
  | of which are non-zero points    :    85791
  Renormalizing the initial density to the exact electron count on the 3D integration grid.
  | Initial density: Formal number of electrons (from input files) :     120.0000000000
  | Integrated number of electrons on 3D grid     :     119.9998034505
  | Charge integration error                      :      -0.0001965495
  | Normalization factor for density and gradient :       1.0000016379
  Renormalizing the free-atom superposition density to the exact electron count on the 3D integration grid.
  | Formal number of electrons (from input files) :     120.0000000000
  | Integrated number of electrons on 3D grid     :     119.9998034505
  | Charge integration error                      :      -0.0001965495
  | Normalization factor for density and gradient :       1.0000016379
  Obtaining max. number of non-zero basis functions in each batch (get_n_compute_maxes).
  | Maximal number of non-zero basis functions:      170 in task     0
  | Maximal number of non-zero basis functions:      165 in task     1
  | Maximal number of non-zero basis functions:      171 in task     2
  | Maximal number of non-zero basis functions:      166 in task     3
  | Maximal number of non-zero basis functions:      171 in task     4
  | Maximal number of non-zero basis functions:      171 in task     5
  | Maximal number of non-zero basis functions:      164 in task     6
  | Maximal number of non-zero basis functions:      165 in task     7
  | Maximal number of non-zero basis functions:      171 in task     8
  | Maximal number of non-zero basis functions:      170 in task     9
  | Maximal number of non-zero basis functions:      170 in task    10
  | Maximal number of non-zero basis functions:      165 in task    11
  | Maximal number of non-zero basis functions:      171 in task    12
  | Maximal number of non-zero basis functions:      170 in task    13
  | Maximal number of non-zero basis functions:      163 in task    14
  | Maximal number of non-zero basis functions:      164 in task    15
  | Maximal number of non-zero basis functions:      165 in task    16
  | Maximal number of non-zero basis functions:      164 in task    17
  | Maximal number of non-zero basis functions:      165 in task    18
  | Maximal number of non-zero basis functions:      165 in task    19
  | Maximal number of non-zero basis functions:      165 in task    20
  | Maximal number of non-zero basis functions:      171 in task    21
  | Maximal number of non-zero basis functions:      166 in task    22
  | Maximal number of non-zero basis functions:      170 in task    23
  Selecting the method for density update.
  Loop over occupied states selected for charge density update.
  Allocating        0.132 MB for KS_eigenvector
  Integrating Hamiltonian matrix: batch-based integration.
  Time summed over all CPUs for integration: real work        0.717 s, elapsed        0.757 s
  Integrating overlap matrix.
  Time summed over all CPUs for integration: real work        0.278 s, elapsed        0.292 s
  Deallocating overlap matrix.

  Updating Kohn-Sham eigenvalues and eigenvectors using ELSI and the ELPA eigensolver.
  Overlap matrix is not singular
  | Lowest and highest eigenvalues :  0.4066E-02,  0.5156E+01
  Finished singularity check of overlap matrix
  | Time :     0.004 s
  Starting ELPA eigensolver
  Finished Cholesky decomposition
  | Time :     0.002 s
  Finished transformation to standard eigenproblem
  | Time :     0.001 s
  Finished solving standard eigenproblem
  | Time :     0.003 s
  Finished back-transformation of eigenvectors
  | Time :     0.001 s

  Obtaining occupation numbers and chemical potential using ELSI.
  | Chemical potential (Fermi level):    -7.68750902 eV
  Writing Kohn-Sham eigenvalues.

  State    Occupation    Eigenvalue [Ha]    Eigenvalue [eV]
      1       2.00000         -55.483550        -1509.78421
      2       2.00000         -55.483550        -1509.78421
      3       2.00000         -55.483550        -1509.78420
      4       2.00000         -24.377903         -663.35648
      5       2.00000         -24.376977         -663.33130
      6       2.00000         -24.376977         -663.33130
      7       2.00000         -24.340963         -662.35131
      8       2.00000         -24.340848         -662.34819
      9       2.00000         -24.340848         -662.34818
     10       2.00000         -24.340647         -662.34269
     11       2.00000         -24.340647         -662.34269
     12       2.00000         -24.340339         -662.33432
     13       2.00000          -3.948867         -107.45414
     14       2.00000          -3.948866         -107.45412
     15       2.00000          -3.948860         -107.45394
     16       2.00000          -2.541210          -69.14984
     17       2.00000          -2.541199          -69.14954
     18       2.00000          -2.541196          -69.14945
     19       2.00000          -2.540683          -69.13550
     20       2.00000          -2.540624          -69.13389
     21       2.00000          -2.540612          -69.13357
     22       2.00000          -2.540564          -69.13227
     23       2.00000          -2.540535          -69.13147
     24       2.00000          -2.540519          -69.13104
     25       2.00000          -1.206430          -32.82864
     26       2.00000          -1.199790          -32.64795
     27       2.00000          -1.199092          -32.62896
     28       2.00000          -1.150456          -31.30550
     29       2.00000          -1.150407          -31.30418
     30       2.00000          -1.149926          -31.29107
     31       2.00000          -1.148088          -31.24107
     32       2.00000          -1.148079          -31.24081
     33       2.00000          -1.147957          -31.23749
     34       2.00000          -0.579378          -15.76568
     35       2.00000          -0.578105          -15.73105
     36       2.00000          -0.554825          -15.09757
     37       2.00000          -0.538859          -14.66310
     38       2.00000          -0.514648          -14.00430
     39       2.00000          -0.504917          -13.73948
     40       2.00000          -0.504556          -13.72966
     41       2.00000          -0.499630          -13.59563
     42       2.00000          -0.495407          -13.48071
     43       2.00000          -0.495305          -13.47795
     44       2.00000          -0.493943          -13.44087
     45       2.00000          -0.493781          -13.43647
     46       2.00000          -0.482492          -13.12928
     47       2.00000          -0.481507          -13.10248
     48       2.00000          -0.478147          -13.01104
     49       2.00000          -0.456409          -12.41951
     50       2.00000          -0.455530          -12.39560
     51       2.00000          -0.455418          -12.39254
     52       2.00000          -0.453080          -12.32894
     53       2.00000          -0.452808          -12.32153
     54       2.00000          -0.451071          -12.27428
     55       2.00000          -0.450551          -12.26011
     56       2.00000          -0.449409          -12.22903
     57       2.00000          -0.449152          -12.22206
     58       2.00000          -0.447920          -12.18852
     59       2.00000          -0.447508          -12.17732
     60       2.00000          -0.447500          -12.17709
     61       0.00000          -0.136845           -3.72374
     62       0.00000          -0.079931           -2.17503
     63       0.00000          -0.078942           -2.14811
     64       0.00000          -0.024197           -0.65842
     65       0.00000          -0.010934           -0.29752
     66       0.00000          -0.001633           -0.04444
     67       0.00000           0.000020            0.00054
     68       0.00000           0.039541            1.07596
     69       0.00000           0.053381            1.45258
     70       0.00000           0.054023            1.47003
     71       0.00000           0.082621            2.24824
     72       0.00000           0.083258            2.26557
     73       0.00000           0.138494            3.76862
     74       0.00000           0.161798            4.40276
     75       0.00000           0.163488            4.44874
     76       0.00000           0.183200            4.98512
     77       0.00000           0.185327            5.04301
     78       0.00000           0.191538            5.21201
     79       0.00000           0.194787            5.30042
     80       0.00000           0.200714            5.46172
     81       0.00000           0.204786            5.57252
     82       0.00000           0.213690            5.81479
     83       0.00000           0.214211            5.82897
     84       0.00000           0.228447            6.21637
     85       0.00000           0.238670            6.49454
     86       0.00000           0.253365            6.89440
     87       0.00000           0.273881            7.45269
     88       0.00000           0.296007            8.05476
     89       0.00000           0.299732            8.15612
     90       0.00000           0.303210            8.25076
     91       0.00000           0.304743            8.29248
     92       0.00000           0.318131            8.65678
     93       0.00000           0.350452            9.53629
     94       0.00000           0.351963            9.57741
     95       0.00000           0.356801            9.70905
     96       0.00000           0.372047           10.12391

  Highest occupied state (VBM) at    -12.17708768 eV
  | Occupation number:      2.00000000

  Lowest unoccupied state (CBM) at    -3.72373779 eV
  | Occupation number:      0.00000000

  Overall HOMO-LUMO gap:      8.45334989 eV.
  Calculating total energy contributions from superposition of free atom densities.

  Total energy components:
  | Sum of eigenvalues            :        -887.90522959 Ha      -24161.13060195 eV
  | XC energy correction          :        -144.33523398 Ha       -3927.56154866 eV
  | XC potential correction       :         187.93322470 Ha        5113.92323771 eV
  | Free-atom electrostatic energy:        -781.08205704 Ha      -21254.32418016 eV
  | Hartree energy correction     :           0.00000000 Ha           0.00000000 eV
  | Entropy correction            :           0.00000000 Ha           0.00000000 eV
  | ---------------------------
  | Total energy                  :       -1625.38929591 Ha      -44229.09309307 eV
  | Total energy, T -> 0          :       -1625.38929591 Ha      -44229.09309307 eV  <-- do not rely on this value for anything but (periodic) metals
  | Electronic free energy        :       -1625.38929591 Ha      -44229.09309307 eV

  Derived energy quantities:
  | Kinetic energy                :        1627.59471836 Ha       44289.10569157 eV
  | Electrostatic energy          :       -3108.64878029 Ha      -84590.63723598 eV
  | Energy correction for multipole
  | error in Hartree potential    :           0.00000000 Ha           0.00000000 eV
  | Sum of eigenvalues per atom                           :       -2013.42755016 eV
  | Total energy (T->0) per atom                          :       -3685.75775776 eV  <-- do not rely on this value for anything but (periodic) metals
  | Electronic free energy per atom                       :       -3685.75775776 eV
  Initialize hartree_potential_storage
  Max. number of atoms included in rho_multipole:           12

  End scf initialization - timings             :  max(cpu_time)    wall_clock(cpu1)
  | Time for scf. initialization                :        0.117 s           0.117 s
  | Boundary condition initialization           :        0.000 s           0.000 s
  | Relaxation initialization                   :        0.002 s           0.002 s
  | Integration                                 :        0.045 s           0.045 s
  | Solution of K.-S. eqns.                     :        0.012 s           0.012 s
  | Grid partitioning                           :        0.035 s           0.035 s
  | Preloading free-atom quantities on grid     :        0.016 s           0.015 s
  | Free-atom superposition energy              :        0.005 s           0.005 s
  | Total energy evaluation                     :        0.000 s           0.001 s

  Partial memory accounting:
  | Current value for overall tracked memory usage:
  |   Minimum:        0.284 MB (on task 23)
  |   Maximum:        0.303 MB (on task  0)
  |   Average:        0.299 MB
  | Peak value for overall tracked memory usage:
  |   Minimum:        1.379 MB (on task 15 after allocating wave)
  |   Maximum:        1.437 MB (on task  2 after allocating wave)
  |   Average:        1.407 MB
  | Largest tracked array allocation so far:
  |   Minimum:        0.250 MB (H_times_psi on task  6)
  |   Maximum:        0.472 MB (all_coords on task  9)
  |   Average:        0.281 MB
  Note:  These values currently only include a subset of arrays which are explicitly tracked.
  The "true" memory usage will be greater.
------------------------------------------------------------
  Evaluating new KS density.
  Integration grid: deviation in total charge (<rho> - N_e) =   7.105427E-14

  Time for density update prior                :  max(cpu_time)    wall_clock(cpu1)
  | self-consistency iterative process          :        0.029 s           0.029 s

------------------------------------------------------------
          Begin self-consistency iteration #    1

  Date     :  20211214, Time     :  141450.020
------------------------------------------------------------
  Pulay mixing of updated and previous charge densities.
  Renormalizing the density to the exact electron count on the 3D integration grid.
  | Formal number of electrons (from input files) :     120.0000000000
  | Integrated number of electrons on 3D grid     :     120.0000000000
  | Charge integration error                      :       0.0000000000
  | Normalization factor for density and gradient :       1.0000000000

  Evaluating partitioned Hartree potential by multipole expansion.
  | Original multipole sum: apparent total charge =   0.828000E-13
  | Sum of charges compensated after spline to logarithmic grids =   0.106965E-03
  | Analytical far-field extrapolation by fixed multipoles:
  | Hartree multipole sum: apparent total charge =   0.831398E-13
  Summing up the Hartree potential.
  Time summed over all CPUs for potential: real work        0.383 s, elapsed        0.391 s
  | RMS charge density error from multipole expansion :   0.105399E-01

  Integrating Hamiltonian matrix: batch-based integration.
  Time summed over all CPUs for integration: real work        0.675 s, elapsed        0.714 s

  Updating Kohn-Sham eigenvalues and eigenvectors using ELSI and the ELPA eigensolver.
  Starting ELPA eigensolver
  Finished transformation to standard eigenproblem
  | Time :     0.001 s
  Finished solving standard eigenproblem
  | Time :     0.003 s
  Finished back-transformation of eigenvectors
  | Time :     0.000 s

  Obtaining occupation numbers and chemical potential using ELSI.
  | Chemical potential (Fermi level):    -7.65746380 eV
  Writing Kohn-Sham eigenvalues.

  State    Occupation    Eigenvalue [Ha]    Eigenvalue [eV]
      1       2.00000         -55.647592        -1514.24803
      2       2.00000         -55.645190        -1514.18266
      3       2.00000         -55.645186        -1514.18255
      4       2.00000         -24.280510         -660.70629
      5       2.00000         -24.275567         -660.57179
      6       2.00000         -24.275564         -660.57171
      7       2.00000         -24.082812         -655.32666
      8       2.00000         -24.074345         -655.09627
      9       2.00000         -24.074340         -655.09613
     10       2.00000         -24.071477         -655.01823
     11       2.00000         -24.071472         -655.01809
     12       2.00000         -24.070412         -654.98923
     13       2.00000          -4.088193         -111.24539
     14       2.00000          -4.085967         -111.18481
     15       2.00000          -4.085962         -111.18468
     16       2.00000          -2.681646          -72.97131
     17       2.00000          -2.681644          -72.97126
     18       2.00000          -2.679503          -72.91297
     19       2.00000          -2.679437          -72.91119
     20       2.00000          -2.679405          -72.91032
     21       2.00000          -2.679400          -72.91017
     22       2.00000          -2.679178          -72.90414
     23       2.00000          -2.676883          -72.84170
     24       2.00000          -2.676878          -72.84155
     25       2.00000          -1.204446          -32.77463
     26       2.00000          -1.195764          -32.53839
     27       2.00000          -1.193458          -32.47565
     28       2.00000          -1.029389          -28.01110
     29       2.00000          -1.023036          -27.83822
     30       2.00000          -1.022858          -27.83339
     31       2.00000          -1.018197          -27.70654
     32       2.00000          -1.018180          -27.70609
     33       2.00000          -1.018104          -27.70403
     34       2.00000          -0.589463          -16.04011
     35       2.00000          -0.586215          -15.95172
     36       2.00000          -0.559265          -15.21837
     37       2.00000          -0.547147          -14.88862
     38       2.00000          -0.506482          -13.78207
     39       2.00000          -0.496260          -13.50391
     40       2.00000          -0.493857          -13.43852
     41       2.00000          -0.488277          -13.28669
     42       2.00000          -0.482944          -13.14158
     43       2.00000          -0.408653          -11.12003
     44       2.00000          -0.398647          -10.84774
     45       2.00000          -0.396667          -10.79385
     46       2.00000          -0.372741          -10.14279
     47       2.00000          -0.370434          -10.08002
     48       2.00000          -0.368287          -10.02160
     49       2.00000          -0.343400           -9.34438
     50       2.00000          -0.340824           -9.27430
     51       2.00000          -0.339519           -9.23877
     52       2.00000          -0.334984           -9.11537
     53       2.00000          -0.334630           -9.10574
     54       2.00000          -0.331920           -9.03199
     55       2.00000          -0.326640           -8.88834
     56       2.00000          -0.325911           -8.86848
     57       2.00000          -0.325598           -8.85996
     58       2.00000          -0.324365           -8.82641
     59       2.00000          -0.322956           -8.78808
     60       2.00000          -0.322015           -8.76247
     61       0.00000          -0.154922           -4.21564
     62       0.00000          -0.083009           -2.25879
     63       0.00000          -0.080811           -2.19898
     64       0.00000          -0.043865           -1.19363
     65       0.00000          -0.030518           -0.83043
     66       0.00000          -0.014472           -0.39380
     67       0.00000          -0.012748           -0.34690
     68       0.00000           0.025088            0.68269
     69       0.00000           0.034781            0.94643
     70       0.00000           0.036728            0.99942
     71       0.00000           0.056071            1.52577
     72       0.00000           0.057271            1.55842
     73       0.00000           0.133893            3.64342
     74       0.00000           0.151852            4.13210
     75       0.00000           0.162886            4.43235
     76       0.00000           0.178869            4.86728
     77       0.00000           0.179808            4.89281
     78       0.00000           0.186830            5.08391
     79       0.00000           0.191555            5.21248
     80       0.00000           0.195591            5.32230
     81       0.00000           0.196671            5.35168
     82       0.00000           0.202827            5.51922
     83       0.00000           0.213300            5.80419
     84       0.00000           0.218624            5.94907
     85       0.00000           0.227074            6.17900
     86       0.00000           0.247125            6.72462
     87       0.00000           0.265302            7.21923
     88       0.00000           0.280680            7.63769
     89       0.00000           0.286775            7.80355
     90       0.00000           0.289303            7.87235
     91       0.00000           0.296277            8.06210
     92       0.00000           0.300471            8.17624
     93       0.00000           0.324325            8.82533
     94       0.00000           0.337132            9.17382
     95       0.00000           0.366377            9.96963
     96       0.00000           0.375109           10.20725

  Highest occupied state (VBM) at     -8.76247087 eV
  | Occupation number:      2.00000000

  Lowest unoccupied state (CBM) at    -4.21564473 eV
  | Occupation number:      0.00000000

  Overall HOMO-LUMO gap:      4.54682614 eV.

  Total energy components:
  | Sum of eigenvalues            :        -882.70018381 Ha      -24019.49409980 eV
  | XC energy correction          :        -145.71471449 Ha       -3965.09912327 eV
  | XC potential correction       :         189.74638091 Ha        5163.26172844 eV
  | Free-atom electrostatic energy:        -781.08205704 Ha      -21254.32418016 eV
  | Hartree energy correction     :          -5.41241823 Ha        -147.27939351 eV
  | Entropy correction            :           0.00000000 Ha           0.00000000 eV
  | ---------------------------
  | Total energy                  :       -1625.16299265 Ha      -44222.93506830 eV
  | Total energy, T -> 0          :       -1625.16299265 Ha      -44222.93506830 eV  <-- do not rely on this value for anything but (periodic) metals
  | Electronic free energy        :       -1625.16299265 Ha      -44222.93506830 eV

  Derived energy quantities:
  | Kinetic energy                :        1634.30005879 Ha       44471.56728805 eV
  | Electrostatic energy          :       -3113.74833695 Ha      -84729.40323308 eV
  | Energy correction for multipole
  | error in Hartree potential    :           0.04535976 Ha           1.23430184 eV
  | Sum of eigenvalues per atom                           :       -2001.62450832 eV
  | Total energy (T->0) per atom                          :       -3685.24458902 eV  <-- do not rely on this value for anything but (periodic) metals
  | Electronic free energy per atom                       :       -3685.24458902 eV
  Evaluating new KS density.
  Integration grid: deviation in total charge (<rho> - N_e) =   0.000000E+00

  Self-consistency convergence accuracy:
  | Change of charge density      :  0.6127E+00
  | Change of sum of eigenvalues  :  0.1416E+03 eV
  | Change of total energy        :  0.6158E+01 eV


------------------------------------------------------------
  End self-consistency iteration #     1       :  max(cpu_time)    wall_clock(cpu1)
  | Time for this iteration                     :        0.081 s           0.082 s
  | Charge density update                       :        0.027 s           0.028 s
  | Density mixing                              :        0.001 s           0.001 s
  | Hartree multipole update                    :        0.001 s           0.001 s
  | Hartree multipole summation                 :        0.017 s           0.017 s
  | Integration                                 :        0.030 s           0.030 s
  | Solution of K.-S. eqns.                     :        0.004 s           0.005 s
  | Total energy evaluation                     :        0.000 s           0.000 s

  Partial memory accounting:
  | Current value for overall tracked memory usage:
  |   Minimum:        0.284 MB (on task 23)
  |   Maximum:        0.303 MB (on task  0)
  |   Average:        0.299 MB
  | Peak value for overall tracked memory usage:
  |   Minimum:        1.379 MB (on task 15 after allocating wave)
  |   Maximum:        1.437 MB (on task  2 after allocating wave)
  |   Average:        1.407 MB
  | Largest tracked array allocation so far:
  |   Minimum:        0.746 MB (gradient_basis_wave on task 14)
  |   Maximum:        0.783 MB (gradient_basis_wave on task  2)
  |   Average:        0.766 MB
  Note:  These values currently only include a subset of arrays which are explicitly tracked.
  The "true" memory usage will be greater.
------------------------------------------------------------

------------------------------------------------------------
          Begin self-consistency iteration #    2

  Date     :  20211214, Time     :  141450.107
------------------------------------------------------------
  Pulay mixing of updated and previous charge densities.
  Renormalizing the density to the exact electron count on the 3D integration grid.
  | Formal number of electrons (from input files) :     120.0000000000
  | Integrated number of electrons on 3D grid     :     120.0000000000
  | Charge integration error                      :      -0.0000000000
  | Normalization factor for density and gradient :       1.0000000000

  Evaluating partitioned Hartree potential by multipole expansion.
  | Original multipole sum: apparent total charge =  -0.530965E-13
  | Sum of charges compensated after spline to logarithmic grids =   0.672170E-04
  | Analytical far-field extrapolation by fixed multipoles:
  | Hartree multipole sum: apparent total charge =  -0.529536E-13
  Summing up the Hartree potential.
  Time summed over all CPUs for potential: real work        0.381 s, elapsed        0.389 s
  | RMS charge density error from multipole expansion :   0.125300E-01

  Integrating Hamiltonian matrix: batch-based integration.
  Time summed over all CPUs for integration: real work        0.674 s, elapsed        0.713 s

  Updating Kohn-Sham eigenvalues and eigenvectors using ELSI and the ELPA eigensolver.
  Starting ELPA eigensolver
  Finished transformation to standard eigenproblem
  | Time :     0.000 s
  Finished solving standard eigenproblem
  | Time :     0.003 s
  Finished back-transformation of eigenvectors
  | Time :     0.000 s

  Obtaining occupation numbers and chemical potential using ELSI.
  | Chemical potential (Fermi level):    -7.82291147 eV
  Highest occupied state (VBM) at     -9.94636672 eV
  | Occupation number:      2.00000000

  Lowest unoccupied state (CBM) at    -4.40096275 eV
  | Occupation number:      0.00000000

  Overall HOMO-LUMO gap:      5.54540397 eV.

  Checking to see if s.c.f. parameters should be adjusted.

  Total energy components:
  | Sum of eigenvalues            :        -885.89752207 Ha      -24106.49810065 eV
  | XC energy correction          :        -145.21192961 Ha       -3951.41765053 eV
  | XC potential correction       :         189.08481601 Ha        5145.25963165 eV
  | Free-atom electrostatic energy:        -781.08205704 Ha      -21254.32418016 eV
  | Hartree energy correction     :          -1.98761544 Ha         -54.08576804 eV
  | Entropy correction            :           0.00000000 Ha           0.00000000 eV
  | ---------------------------
  | Total energy                  :       -1625.09430815 Ha      -44221.06606773 eV
  | Total energy, T -> 0          :       -1625.09430815 Ha      -44221.06606773 eV  <-- do not rely on this value for anything but (periodic) metals
  | Electronic free energy        :       -1625.09430815 Ha      -44221.06606773 eV

  Derived energy quantities:
  | Kinetic energy                :        1630.37056007 Ha       44364.64018763 eV
  | Electrostatic energy          :       -3110.25293861 Ha      -84634.28860483 eV
  | Energy correction for multipole
  | error in Hartree potential    :           0.04951759 Ha           1.34744205 eV
  | Sum of eigenvalues per atom                           :       -2008.87484172 eV
  | Total energy (T->0) per atom                          :       -3685.08883898 eV  <-- do not rely on this value for anything but (periodic) metals
  | Electronic free energy per atom                       :       -3685.08883898 eV
  Evaluating new KS density.
  Integration grid: deviation in total charge (<rho> - N_e) =  -2.842171E-14

  Self-consistency convergence accuracy:
  | Change of charge density      :  0.4935E+00
  | Change of sum of eigenvalues  : -0.8700E+02 eV
  | Change of total energy        :  0.1869E+01 eV


------------------------------------------------------------
  End self-consistency iteration #     2       :  max(cpu_time)    wall_clock(cpu1)
  | Time for this iteration                     :        0.083 s           0.081 s
  | Charge density update                       :        0.027 s           0.027 s
  | Density mixing                              :        0.004 s           0.002 s
  | Hartree multipole update                    :        0.001 s           0.001 s
  | Hartree multipole summation                 :        0.016 s           0.016 s
  | Integration                                 :        0.030 s           0.030 s
  | Solution of K.-S. eqns.                     :        0.004 s           0.005 s
  | Total energy evaluation                     :        0.000 s           0.000 s

  Partial memory accounting:
  | Current value for overall tracked memory usage:
  |   Minimum:        0.285 MB (on task 23)
  |   Maximum:        0.304 MB (on task  0)
  |   Average:        0.300 MB
  | Peak value for overall tracked memory usage:
  |   Minimum:        1.379 MB (on task 15 after allocating wave)
  |   Maximum:        1.437 MB (on task  2 after allocating wave)
  |   Average:        1.407 MB
  | Largest tracked array allocation so far:
  |   Minimum:        0.746 MB (gradient_basis_wave on task 14)
  |   Maximum:        0.783 MB (gradient_basis_wave on task  2)
  |   Average:        0.766 MB
  Note:  These values currently only include a subset of arrays which are explicitly tracked.
  The "true" memory usage will be greater.
------------------------------------------------------------

------------------------------------------------------------
          Begin self-consistency iteration #    3

  Date     :  20211214, Time     :  141450.193
------------------------------------------------------------
  Pulay mixing of updated and previous charge densities.
  Renormalizing the density to the exact electron count on the 3D integration grid.
  | Formal number of electrons (from input files) :     120.0000000000
  | Integrated number of electrons on 3D grid     :     120.0000000000
  | Charge integration error                      :      -0.0000000000
  | Normalization factor for density and gradient :       1.0000000000

  Evaluating partitioned Hartree potential by multipole expansion.
  | Original multipole sum: apparent total charge =  -0.323952E-13
  | Sum of charges compensated after spline to logarithmic grids =   0.857019E-04
  | Analytical far-field extrapolation by fixed multipoles:
  | Hartree multipole sum: apparent total charge =  -0.309870E-13
  Summing up the Hartree potential.
  Time summed over all CPUs for potential: real work        0.381 s, elapsed        0.389 s
  | RMS charge density error from multipole expansion :   0.172213E-01

  Integrating Hamiltonian matrix: batch-based integration.
  Time summed over all CPUs for integration: real work        0.673 s, elapsed        0.712 s

  Updating Kohn-Sham eigenvalues and eigenvectors using ELSI and the ELPA eigensolver.
  Starting ELPA eigensolver
  Finished transformation to standard eigenproblem
  | Time :     0.000 s
  Finished solving standard eigenproblem
  | Time :     0.004 s
  Finished back-transformation of eigenvectors
  | Time :     0.000 s

  Obtaining occupation numbers and chemical potential using ELSI.
  | Chemical potential (Fermi level):    -7.89077892 eV
  Highest occupied state (VBM) at     -9.74552967 eV
  | Occupation number:      2.00000000

  Lowest unoccupied state (CBM) at    -4.65600582 eV
  | Occupation number:      0.00000000

  Overall HOMO-LUMO gap:      5.08952385 eV.

  Total energy components:
  | Sum of eigenvalues            :        -887.00747750 Ha      -24136.70152469 eV
  | XC energy correction          :        -145.18165611 Ha       -3950.59386668 eV
  | XC potential correction       :         189.04362292 Ha        5144.13871065 eV
  | Free-atom electrostatic energy:        -781.08205704 Ha      -21254.32418016 eV
  | Hartree energy correction     :          -0.86568762 Ha         -23.55655877 eV
  | Entropy correction            :           0.00000000 Ha           0.00000000 eV
  | ---------------------------
  | Total energy                  :       -1625.09325535 Ha      -44221.03741965 eV
  | Total energy, T -> 0          :       -1625.09325535 Ha      -44221.03741965 eV  <-- do not rely on this value for anything but (periodic) metals
  | Electronic free energy        :       -1625.09325535 Ha      -44221.03741965 eV

  Derived energy quantities:
  | Kinetic energy                :        1628.70744478 Ha       44319.38451784 eV
  | Electrostatic energy          :       -3108.61904402 Ha      -84589.82807082 eV
  | Energy correction for multipole
  | error in Hartree potential    :           0.06516077 Ha           1.77311485 eV
  | Sum of eigenvalues per atom                           :       -2011.39179372 eV
  | Total energy (T->0) per atom                          :       -3685.08645164 eV  <-- do not rely on this value for anything but (periodic) metals
  | Electronic free energy per atom                       :       -3685.08645164 eV
  Evaluating new KS density.
  Integration grid: deviation in total charge (<rho> - N_e) =   1.421085E-14

  Self-consistency convergence accuracy:
  | Change of charge density      :  0.1257E+00
  | Change of sum of eigenvalues  : -0.3020E+02 eV
  | Change of total energy        :  0.2865E-01 eV


------------------------------------------------------------
  End self-consistency iteration #     3       :  max(cpu_time)    wall_clock(cpu1)
  | Time for this iteration                     :        0.083 s           0.082 s
  | Charge density update                       :        0.027 s           0.028 s
  | Density mixing                              :        0.004 s           0.002 s
  | Hartree multipole update                    :        0.001 s           0.001 s
  | Hartree multipole summation                 :        0.016 s           0.017 s
  | Integration                                 :        0.030 s           0.030 s
  | Solution of K.-S. eqns.                     :        0.004 s           0.004 s
  | Total energy evaluation                     :        0.000 s           0.000 s

  Partial memory accounting:
  | Current value for overall tracked memory usage:
  |   Minimum:        0.285 MB (on task 23)
  |   Maximum:        0.304 MB (on task  0)
  |   Average:        0.300 MB
  | Peak value for overall tracked memory usage:
  |   Minimum:        1.379 MB (on task 15 after allocating wave)
  |   Maximum:        1.437 MB (on task  2 after allocating wave)
  |   Average:        1.407 MB
  | Largest tracked array allocation so far:
  |   Minimum:        0.746 MB (gradient_basis_wave on task 14)
  |   Maximum:        0.783 MB (gradient_basis_wave on task  2)
  |   Average:        0.766 MB
  Note:  These values currently only include a subset of arrays which are explicitly tracked.
  The "true" memory usage will be greater.
------------------------------------------------------------

------------------------------------------------------------
          Begin self-consistency iteration #    4

  Date     :  20211214, Time     :  141450.278
------------------------------------------------------------
  Pulay mixing of updated and previous charge densities.
  Renormalizing the density to the exact electron count on the 3D integration grid.
  | Formal number of electrons (from input files) :     120.0000000000
  | Integrated number of electrons on 3D grid     :     120.0000000000
  | Charge integration error                      :       0.0000000000
  | Normalization factor for density and gradient :       1.0000000000

  Evaluating partitioned Hartree potential by multipole expansion.
  | Original multipole sum: apparent total charge =   0.157118E-13
  | Sum of charges compensated after spline to logarithmic grids =   0.943902E-04
  | Analytical far-field extrapolation by fixed multipoles:
  | Hartree multipole sum: apparent total charge =   0.180363E-13
  Summing up the Hartree potential.
  Time summed over all CPUs for potential: real work        0.381 s, elapsed        0.389 s
  | RMS charge density error from multipole expansion :   0.195227E-01

  Integrating Hamiltonian matrix: batch-based integration.
  Time summed over all CPUs for integration: real work        0.674 s, elapsed        0.712 s

  Updating Kohn-Sham eigenvalues and eigenvectors using ELSI and the ELPA eigensolver.
  Starting ELPA eigensolver
  Finished transformation to standard eigenproblem
  | Time :     0.001 s
  Finished solving standard eigenproblem
  | Time :     0.003 s
  Finished back-transformation of eigenvectors
  | Time :     0.000 s

  Obtaining occupation numbers and chemical potential using ELSI.
  | Chemical potential (Fermi level):    -7.88709792 eV
  Highest occupied state (VBM) at     -9.83946614 eV
  | Occupation number:      2.00000000

  Lowest unoccupied state (CBM) at    -4.61228947 eV
  | Occupation number:      0.00000000

  Overall HOMO-LUMO gap:      5.22717666 eV.

  Total energy components:
  | Sum of eigenvalues            :        -887.18594744 Ha      -24141.55793881 eV
  | XC energy correction          :        -145.16308185 Ha       -3950.08843533 eV
  | XC potential correction       :         189.01837829 Ha        5143.45176913 eV
  | Free-atom electrostatic energy:        -781.08205704 Ha      -21254.32418016 eV
  | Hartree energy correction     :          -0.67843014 Ha         -18.46102338 eV
  | Entropy correction            :           0.00000000 Ha           0.00000000 eV
  | ---------------------------
  | Total energy                  :       -1625.09113818 Ha      -44220.97980855 eV
  | Total energy, T -> 0          :       -1625.09113818 Ha      -44220.97980855 eV  <-- do not rely on this value for anything but (periodic) metals
  | Electronic free energy        :       -1625.09113818 Ha      -44220.97980855 eV

  Derived energy quantities:
  | Kinetic energy                :        1627.96341122 Ha       44299.13833453 eV
  | Electrostatic energy          :       -3107.89146755 Ha      -84570.02970775 eV
  | Energy correction for multipole
  | error in Hartree potential    :           0.07247522 Ha           1.97215095 eV
  | Sum of eigenvalues per atom                           :       -2011.79649490 eV
  | Total energy (T->0) per atom                          :       -3685.08165071 eV  <-- do not rely on this value for anything but (periodic) metals
  | Electronic free energy per atom                       :       -3685.08165071 eV
  Evaluating new KS density.
  Integration grid: deviation in total charge (<rho> - N_e) =  -5.684342E-14

  Self-consistency convergence accuracy:
  | Change of charge density      :  0.8420E-01
  | Change of sum of eigenvalues  : -0.4856E+01 eV
  | Change of total energy        :  0.5761E-01 eV


------------------------------------------------------------
  End self-consistency iteration #     4       :  max(cpu_time)    wall_clock(cpu1)
  | Time for this iteration                     :        0.083 s           0.084 s
  | Charge density update                       :        0.027 s           0.028 s
  | Density mixing                              :        0.004 s           0.004 s
  | Hartree multipole update                    :        0.001 s           0.002 s
  | Hartree multipole summation                 :        0.016 s           0.016 s
  | Integration                                 :        0.030 s           0.030 s
  | Solution of K.-S. eqns.                     :        0.004 s           0.004 s
  | Total energy evaluation                     :        0.000 s           0.000 s

  Partial memory accounting:
  | Current value for overall tracked memory usage:
  |   Minimum:        0.285 MB (on task 23)
  |   Maximum:        0.304 MB (on task  0)
  |   Average:        0.300 MB
  | Peak value for overall tracked memory usage:
  |   Minimum:        1.379 MB (on task 15 after allocating wave)
  |   Maximum:        1.437 MB (on task  2 after allocating wave)
  |   Average:        1.407 MB
  | Largest tracked array allocation so far:
  |   Minimum:        0.746 MB (gradient_basis_wave on task 14)
  |   Maximum:        0.783 MB (gradient_basis_wave on task  2)
  |   Average:        0.766 MB
  Note:  These values currently only include a subset of arrays which are explicitly tracked.
  The "true" memory usage will be greater.
------------------------------------------------------------

------------------------------------------------------------
          Begin self-consistency iteration #    5

  Date     :  20211214, Time     :  141450.368
------------------------------------------------------------
  Pulay mixing of updated and previous charge densities.
  Renormalizing the density to the exact electron count on the 3D integration grid.
  | Formal number of electrons (from input files) :     120.0000000000
  | Integrated number of electrons on 3D grid     :     120.0000000000
  | Charge integration error                      :      -0.0000000000
  | Normalization factor for density and gradient :       1.0000000000

  Evaluating partitioned Hartree potential by multipole expansion.
  | Original multipole sum: apparent total charge =  -0.980958E-13
  | Sum of charges compensated after spline to logarithmic grids =   0.948576E-04
  | Analytical far-field extrapolation by fixed multipoles:
  | Hartree multipole sum: apparent total charge =  -0.997992E-13
  Summing up the Hartree potential.
  Time summed over all CPUs for potential: real work        0.381 s, elapsed        0.389 s
[...]
   Ionic forces                  :  0.000000E+00  0.000000E+00  0.000000E+00
   Multipole                     : -0.226975E+00 -0.104199E+00  0.169443E+00
   Hartree pot. SCF incomplete   :  0.192671E-05  0.333937E-05 -0.134470E-06
   Pulay + GGA                   :  0.327684E+00  0.952521E+00 -0.448326E+00
   ----------------------------------------------------------------
   Total forces(  12)            : -0.681744E-03 -0.482589E-04 -0.247280E-03


  Self-consistency convergence accuracy:
  | Change of charge density      :  0.1824E-06
  | Change of sum of eigenvalues  : -0.3941E-04 eV
  | Change of total energy        :  0.8637E-08 eV
  | Change of forces              :  0.1088E-05 eV/A

  Writing Kohn-Sham eigenvalues.

  State    Occupation    Eigenvalue [Ha]    Eigenvalue [eV]
      1       2.00000         -55.574061        -1512.24715
      2       2.00000         -55.571133        -1512.16746
      3       2.00000         -55.571031        -1512.16470
      4       2.00000         -24.300769         -661.25756
      5       2.00000         -24.299858         -661.23278
      6       2.00000         -24.299838         -661.23222
      7       2.00000         -24.214386         -658.90696
      8       2.00000         -24.213622         -658.88617
      9       2.00000         -24.209404         -658.77140
     10       2.00000         -24.209245         -658.76708
     11       2.00000         -24.209187         -658.76550
     12       2.00000         -24.209122         -658.76374
     13       2.00000          -4.038923         -109.90469
     14       2.00000          -4.035836         -109.82069
     15       2.00000          -4.035742         -109.81812
     16       2.00000          -2.632171          -71.62502
     17       2.00000          -2.630841          -71.58882
     18       2.00000          -2.629308          -71.54711
     19       2.00000          -2.629214          -71.54457
     20       2.00000          -2.627808          -71.50630
     21       2.00000          -2.627624          -71.50129
     22       2.00000          -2.627525          -71.49858
     23       2.00000          -2.624611          -71.41930
     24       2.00000          -2.624515          -71.41667
     25       2.00000          -1.194326          -32.49925
     26       2.00000          -1.179836          -32.10496
     27       2.00000          -1.179612          -32.09888
     28       2.00000          -1.088582          -29.62182
     29       2.00000          -1.084204          -29.50270
     30       2.00000          -1.083578          -29.48567
     31       2.00000          -1.082406          -29.45377
     32       2.00000          -1.077586          -29.32260
     33       2.00000          -1.077476          -29.31961
     34       2.00000          -0.584517          -15.90552
     35       2.00000          -0.582142          -15.84088
     36       2.00000          -0.547576          -14.90030
     37       2.00000          -0.530713          -14.44145
     38       2.00000          -0.497857          -13.54738
     39       2.00000          -0.482137          -13.11963
     40       2.00000          -0.479621          -13.05115
     41       2.00000          -0.465911          -12.67807
     42       2.00000          -0.465747          -12.67362
     43       2.00000          -0.449093          -12.22045
     44       2.00000          -0.442198          -12.03283
     45       2.00000          -0.440104          -11.97584
     46       2.00000          -0.422140          -11.48702
     47       2.00000          -0.418696          -11.39330
     48       2.00000          -0.415591          -11.30881
     49       2.00000          -0.394657          -10.73916
     50       2.00000          -0.392264          -10.67404
     51       2.00000          -0.390779          -10.63364
     52       2.00000          -0.386958          -10.52967
     53       2.00000          -0.386875          -10.52740
     54       2.00000          -0.384445          -10.46127
     55       2.00000          -0.382509          -10.40861
     56       2.00000          -0.378835          -10.30863
     57       2.00000          -0.378270          -10.29325
     58       2.00000          -0.377372          -10.26883
     59       2.00000          -0.372887          -10.14676
     60       2.00000          -0.372634          -10.13989
     61       0.00000          -0.104950           -2.85583
     62       0.00000          -0.048458           -1.31862
     63       0.00000          -0.047158           -1.28324
     64       0.00000           0.006914            0.18814
     65       0.00000           0.011103            0.30212
     66       0.00000           0.021163            0.57586
     67       0.00000           0.029881            0.81309
     68       0.00000           0.045347            1.23396
     69       0.00000           0.064469            1.75428
     70       0.00000           0.074879            2.03757
     71       0.00000           0.106931            2.90975
     72       0.00000           0.114394            3.11281
     73       0.00000           0.157262            4.27931
     74       0.00000           0.176019            4.78973
     75       0.00000           0.181307            4.93360
     76       0.00000           0.189713            5.16237
     77       0.00000           0.191487            5.21064
     78       0.00000           0.204164            5.55557
     79       0.00000           0.206818            5.62781
     80       0.00000           0.208986            5.68679
     81       0.00000           0.218590            5.94815
     82       0.00000           0.220276            5.99402
     83       0.00000           0.223647            6.08574
     84       0.00000           0.235138            6.39843
     85       0.00000           0.246165            6.69849
     86       0.00000           0.267306            7.27377
     87       0.00000           0.285998            7.78241
     88       0.00000           0.298240            8.11551
     89       0.00000           0.298835            8.13171
     90       0.00000           0.306684            8.34530
     91       0.00000           0.315668            8.58975
     92       0.00000           0.316410            8.60996
     93       0.00000           0.331795            9.02860
     94       0.00000           0.350909            9.54873
     95       0.00000           0.367216            9.99246
     96       0.00000           0.382968           10.42109

  Highest occupied state (VBM) at    -10.13989299 eV
  | Occupation number:      2.00000000

  Lowest unoccupied state (CBM) at    -2.85582564 eV
  | Occupation number:      0.00000000

  Overall HOMO-LUMO gap:      7.28406734 eV.
  | Chemical Potential                          :    -7.42267884 eV

  Self-consistency cycle converged.


------------------------------------------------------------
  End self-consistency iteration #     7       :  max(cpu_time)    wall_clock(cpu1)
  | Time for this iteration                     :        0.294 s           0.293 s
  | Charge density & force component update     :        0.149 s           0.150 s
  | Density mixing                              :        0.006 s           0.004 s
  | Hartree multipole update                    :        0.008 s           0.008 s
  | Hartree multipole summation                 :        0.051 s           0.051 s
  | Hartree pot. SCF incomplete forces          :        0.031 s           0.032 s
  | Integration                                 :        0.033 s           0.033 s
  | Solution of K.-S. eqns.                     :        0.013 s           0.014 s
  | Total energy evaluation                     :        0.000 s           0.000 s

  Partial memory accounting:
  | Current value for overall tracked memory usage:
  |   Minimum:        0.291 MB (on task 23)
  |   Maximum:        0.316 MB (on task  0)
  |   Average:        0.310 MB
  | Peak value for overall tracked memory usage:
  |   Minimum:        3.173 MB (on task 11 after allocating hessian_basis_wave)
  |   Maximum:        3.215 MB (on task  2 after allocating hessian_basis_wave)
  |   Average:        3.193 MB
  | Largest tracked array allocation so far:
  |   Minimum:        1.556 MB (hessian_basis_wave on task 11)
  |   Maximum:        1.575 MB (hessian_basis_wave on task  2)
  |   Average:        1.565 MB
  Note:  These values currently only include a subset of arrays which are explicitly tracked.
  The "true" memory usage will be greater.
------------------------------------------------------------
  Removing unitary transformations (pure translations, rotations) from forces on atoms.
  Atomic forces before filtering:
  | Net force on center of mass :   0.230709E-02 -0.145396E-02  0.767535E-03 eV/A
  | Net torque on center of mass:   0.402190E-03  0.284911E-02 -0.107393E-01 eV
  Atomic forces after filtering:
  | Net force on center of mass :  -0.522674E-18  0.435562E-18 -0.217781E-18 eV/A
  | Net torque on center of mass:   0.530126E-18 -0.138294E-17 -0.228184E-17 eV

  Energy and forces in a compact form:
  | Total energy uncorrected      :         -0.442231190831245E+05 eV
  | Total energy corrected        :         -0.442231190831245E+05 eV  <-- do not rely on this value for anything but (periodic) metals
  | Electronic free energy        :         -0.442231190831245E+05 eV
  Total atomic forces (unitary forces cleaned) [eV/Ang]:
  |    1          0.559050691365896E-03          0.429543589656339E-03         -0.400620854877903E-03
  |    2         -0.213546571474859E-04         -0.184234758795205E-03          0.596747766608285E-04
  |    3          0.453404552854353E-03         -0.355098282952362E-03         -0.219105786756662E-03
  |    4         -0.544636120447516E-03         -0.555183840393239E-03          0.264231977419182E-03
  |    5          0.145035460902962E-03         -0.443839682083572E-03         -0.258611216377818E-03
  |    6          0.741312347622930E-04          0.682541468006180E-03         -0.199673138329067E-03
  |    7          0.376049329084440E-04          0.148092545476485E-03          0.370577045616474E-03
  |    8          0.241977071234850E-03         -0.777694973280523E-03         -0.492588163643043E-03
  |    9         -0.261059066509990E-03          0.688539910450340E-03          0.550998688394015E-03
  |   10         -0.126644987758624E-03         -0.321132320974266E-03          0.694333542015923E-03
  |   11          0.303555017076287E-03          0.937045321460952E-03         -0.293428762244602E-04
  |   12         -0.861064129241470E-03         -0.248578976571129E-03         -0.339873993897470E-03

  ------------------------------------ 
  Start decomposition of the XC Energy 
  ------------------------------------ 
  X and C from original XC functional choice 
  Hartree-Fock Energy :          0.000000000 Ha              0.000000000 eV
  X Energy            :       -140.565762328 Ha          -3824.989006231 eV
  C Energy            :         -4.965798421 Ha           -135.126250180 eV
  Total XC Energy     :       -145.531560748 Ha          -3960.115256411 eV
  ------------------------------------ 
  LDA X and C from self-consistent density 
  X Energy LDA        :       -133.157497829 Ha          -3623.399872492 eV
  C Energy LDA        :         -8.844621486 Ha           -240.674396014 eV
  ------------------------------------ 
  End decomposition of the XC Energy 
  ------------------------------------ 

------------------------------------------------------------
  Relaxation / MD: End force evaluation.       :  max(cpu_time)    wall_clock(cpu1)
  | Time for this force evaluation              :        1.283 s           1.355 s

------------------------------------------------------------
  Geometry optimization: Attempting to predict improved coordinates.

  Removing unitary transformations (pure translations, rotations) from forces on atoms.
  Atomic forces before filtering:
  | Net force on center of mass :  -0.522674E-18  0.435562E-18 -0.217781E-18 eV/A
  | Net torque on center of mass:   0.530126E-18 -0.138294E-17 -0.228184E-17 eV
  Atomic forces after filtering:
  | Net force on center of mass :  -0.174225E-18  0.435562E-18  0.435562E-19 eV/A
  | Net torque on center of mass:   0.484028E-18 -0.553175E-18 -0.391832E-18 eV
  Net remaining forces (excluding translations, rotations) in present geometry:
  || Forces on atoms   || =   0.937045E-03 eV/A.
  Maximum force component is  0.937045E-03 eV/A.
  Present geometry is converged.

------------------------------------------------------------
  Final atomic structure:
                         x [A]             y [A]             z [A]
            atom         0.34975397       -0.59223478        1.75882825  Al
            atom         2.40624850       -1.79452037       -0.51255678  Al
            atom        -0.95192895       -1.83895398       -1.00094282  Al
            atom         3.42253506       -0.55800660       -0.91873682  F
            atom        -1.84395696       -0.64234696       -1.70744157  F
            atom         2.72880021       -3.41043870       -0.64113794  F
            atom        -1.17450367       -3.46650971       -1.18480658  F
            atom         1.78313369       -1.51992619        1.16711302  F
            atom         0.80012216       -1.48297448       -1.28895729  F
            atom         0.11363933       -0.90945819        3.36042057  F
            atom         0.45655466        0.88288077        1.01328287  F
            atom        -0.84841199       -1.52679281        0.78093609  F
------------------------------------------------------------

------------------------------------------------------------------------------
  Final output of selected total energy values:

  The following output summarizes some interesting total energy values
  at the end of a run (AFTER all relaxation, molecular dynamics, etc.).

  | Total energy of the DFT / Hartree-Fock s.c.f. calculation      :         -44223.119083125 eV
  | Final zero-broadening corrected energy (caution - metals only) :         -44223.119083125 eV
  | For reference only, the value of 1 Hartree used in FHI-aims is :             27.211384500 eV

  Before relying on these values, please be sure to understand exactly which
  total energy value is referred to by a given number. Different objects may
  all carry the same name 'total energy'. Definitions:

  Total energy of the DFT / Hartree-Fock s.c.f. calculation:
  | Note that this energy does not include ANY quantities calculated after the
  | s.c.f. cycle, in particular not ANY RPA, MP2, etc. many-body perturbation terms.

  Final zero-broadening corrected energy:
  | For metallic systems only, a broadening of the occupation numbers at the Fermi
  | level can be extrapolated back to zero broadening by an electron-gas inspired
  | formula. For all systems that are not real metals, this value can be
  | meaningless and should be avoided.

------------------------------------------------------------------------------
  Methods described in the following list of references were used in this FHI-aims run.
  If you publish the results, please make sure to cite these reference if they apply.
  FHI-aims is an academic code, and for our developers (often, Ph.D. students
  and postdocs), scientific credit in the community is essential.
  Thank you for helping us!

  For any use of FHI-aims, please cite:

    Volker Blum, Ralf Gehrke, Felix Hanke, Paula Havu, Ville Havu,
    Xinguo Ren, Karsten Reuter, and Matthias Scheffler
    'Ab initio molecular simulations with numeric atom-centered orbitals'
    Computer Physics Communications 180, 2175-2196 (2009)
    http://dx.doi.org/10.1016/j.cpc.2009.06.022


  The ELSI infrastructure was used in your run to solve the Kohn-Sham electronic structure.
  Please check out http://elsi-interchange.org to learn more.
  If scalability is important for your project, please acknowledge ELSI by citing:

    V. W-z. Yu, F. Corsetti, A. Garcia, W. P. Huhn, M. Jacquelin, W. Jia,
    B. Lange, L. Lin, J. Lu, W. Mi, A. Seifitokaldani, A. Vazquez-Mayagoitia,
    C. Yang, H. Yang, and V. Blum
    'ELSI: A unified software interface for Kohn-Sham electronic structure solvers'
    Computer Physics Communications 222, 267-285 (2018).
    http://dx.doi.org/10.1016/j.cpc.2017.09.007


  For the real-space grid partitioning and parallelization used in this calculation, please cite:

    Ville Havu, Volker Blum, Paula Havu, and Matthias Scheffler,
    'Efficient O(N) integration for all-electron electronic structure calculation'
    'using numerically tabulated basis functions'
    Journal of Computational Physics 228, 8367-8379 (2009).
    http://dx.doi.org/10.1016/j.jcp.2009.08.008

  Of course, there are many other important community references, e.g., those cited in the
  above references. Our list is limited to references that describe implementations in the
  FHI-aims code. The reason is purely practical (length of this list) - please credit others as well.

------------------------------------------------------------
          Leaving FHI-aims.
          Date     :  20211214, Time     :  141525.219

          Computational steps:
          | Number of self-consistency cycles          :          242
          | Number of SCF (re)initializations          :           27
          | Number of relaxation steps                 :           26

          Detailed time accounting                     :  max(cpu_time)    wall_clock(cpu1)
          | Total time                                  :       34.336 s          35.579 s
          | Preparation time                            :        0.185 s           0.185 s
          | Boundary condition initalization            :        0.001 s           0.002 s
          | Grid partitioning                           :        0.918 s           0.919 s
          | Preloading free-atom quantities on grid     :        0.412 s           0.411 s
          | Free-atom superposition energy              :        0.137 s           0.137 s
          | Total time for integrations                 :        7.926 s           7.925 s
          | Total time for solution of K.-S. equations  :        1.324 s           1.329 s
          | Total time for EV reorthonormalization      :        0.143 s           0.144 s
          | Total time for density & force components   :       14.205 s          14.207 s
          | Total time for mixing                       :        0.920 s           0.437 s
          | Total time for Hartree multipole update     :        0.366 s           0.352 s
          | Total time for Hartree multipole sum        :        5.815 s           5.826 s
          | Total time for total energy evaluation      :        0.040 s           0.027 s
          | Total time NSC force correction             :        1.701 s           1.706 s
          | Total time for scaled ZORA corrections      :        0.000 s           0.000 s

          Partial memory accounting:
          | Residual value for overall tracked memory usage across tasks:     0.000000 MB (should be 0.000000 MB)
          | Peak values for overall tracked memory usage:
          |   Minimum:        3.173 MB (on task 11 after allocating hessian_basis_wave)
          |   Maximum:        3.215 MB (on task  2 after allocating hessian_basis_wave)
          |   Average:        3.193 MB
          | Largest tracked array allocation:
          |   Minimum:        1.556 MB (hessian_basis_wave on task 11)
          |   Maximum:        1.575 MB (hessian_basis_wave on task  2)
          |   Average:        1.565 MB
          Note:  These values currently only include a subset of arrays which are explicitly tracked.
          The "true" memory usage will be greater.

          Have a nice day.
------------------------------------------------------------
