12
Total energy -44223.118899558
 Al   -0.091712    1.187862   -2.199928
 Al   -0.725256    1.198054    1.031982
 Al   -3.053660    0.149302   -1.191229
  F   -4.193756    1.081330   -1.938278
  F   -1.552687    0.124583   -2.205985
  F   -0.681640    2.732956   -2.287811
  F   -2.292007    1.131988    0.125678
  F    0.279629    0.924609   -0.450891
  F   -0.498581    2.746325    1.559351
  F   -0.609868   -0.174326    1.945840
  F   -3.263930   -1.386601   -0.617871
  F    1.091208    0.495844   -3.118425
