12
Lattice="0.0 0.0 0.0 0.0 0.0 0.0 0.0 0.0 0.0" Properties=species:S:1:pos:R:3:forces:R:3 energy=-44228.29466892 pbc="F F F"
Al		-0.09171168		1.18786212		-2.19992786		6.01e-06		0.00046157		2.041e-05
Al		-0.72525642		1.19805421		1.03198151		0.00028522		-0.0007489		0.00068669
Al		-3.05366001		0.14930229		-1.19122877		1.485e-05		0.00039945		-0.00023762
F		-4.19375618		1.08133028		-1.93827804		7.267e-05		-7.364e-05		0.00017946
F		-1.55268739		0.12458263		-2.20598548		-0.00024796		-0.00047832		-5.978e-05
F		-0.68163970		2.73295568		-2.28781106		0.00011779		-0.00011678		-2.149e-05
F		-2.29200654		1.13198775		0.12567817		-7.377e-05		0.00011821		9.34e-06
F		0.27962898		0.92460937		-0.45089067		8.548e-05		0.00012654		9.847e-05
F		-0.49858143		2.74632537		1.55935104		-4.066e-05		-0.00016781		-0.00034007
F		-0.60986830		-0.17432573		1.94583997		-0.00017225		0.00066398		-0.00051772
F		-3.26392988		-1.38660056		-0.61787052		-1.109e-05		-0.0002245		4.528e-05
F		1.09120756		0.49584360		-3.11842529		-3.629e-05		4.02e-05		0.00013704
12
Lattice="0.0 0.0 0.0 0.0 0.0 0.0 0.0 0.0 0.0" Properties=species:S:1:pos:R:3:forces:R:3 energy=-44222.27100907 pbc="F F F"
Al		-0.09168835		1.18786203		-2.19997469		0.00080385		0.00050594		0.00066449
Al		-0.72530767		1.19805363		1.03195794		0.00107944		0.00055145		0.00147837
Al		-3.05370913		0.14931607		-1.19120985		-0.00010491		0.00019671		-0.00023521
F		-4.19396743		1.08108049		-1.93839396		0.00072164		-0.00046356		0.00054271
F		-1.55268703		0.12465304		-2.20594764		-0.00079808		-0.00041417		-5.616e-05
F		-0.68128733		2.73309211		-2.28777139		-7.928e-05		-0.0004002		-0.00017069
F		-2.29200609		1.13221923		0.12551919		-8.788e-05		5.076e-05		0.00010584
F		0.27973561		0.92471306		-0.45086976		-0.00056167		0.00033475		-0.00026152
F		-0.49876947		2.74631828		1.55966214		-0.00029325		-0.00248437		-0.00118853
F		-0.60986765		-0.17451027		1.94559643		-0.00044239		0.00154345		-0.00102002
F		-3.26377127		-1.38652972		-0.61756314		3.375e-05		0.00035633		-0.000275
F		1.09106482		0.49565904		-3.11857226		-0.00027124		0.0002229		0.00041572
12
Lattice="0.0 0.0 0.0 0.0 0.0 0.0 0.0 0.0 0.0" Properties=species:S:1:pos:R:3:forces:R:3 energy=-44220.51017359 pbc="F F F"
Al		-0.09184630		1.18785427		-2.19995679		0.00125448		0.00028614		0.00204159
Al		-0.72523198		1.19801890		1.03176360		0.0013049		-6.74e-05		0.00217161
Al		-3.05364792		0.14933305		-1.19117784		0.00112176		0.00030493		-4.462e-05
F		-4.19370170		1.08059447		-1.93923893		0.0002785		2.261e-05		0.00023249
F		-1.55238484		0.12400063		-2.20568496		-0.00129771		0.0001478		0.00014213
F		-0.68164453		2.73304602		-2.28710568		-0.00065109		-0.00061523		-0.00063883
F		-2.29173021		1.13302532		0.12484935		-0.00016027		-0.00029106		0.00036794
F		0.28019117		0.92485171		-0.45087075		-0.00138678		0.00029451		-0.00059208
F		-0.49871306		2.74605535		1.56018689		-6.191e-05		-0.00290933		-0.00139025
F		-0.61035824		-0.17492626		1.94500158		-0.0006323		0.00281274		-0.00201049
F		-3.26399051		-1.38601150		-0.61634294		0.00011511		-6.195e-05		-0.00038805
F		1.09079710		0.49608505		-3.11899054		0.00011532		7.624e-05		0.00010853
12
Lattice="0.0 0.0 0.0 0.0 0.0 0.0 0.0 0.0 0.0" Properties=species:S:1:pos:R:3:forces:R:3 energy=-44220.48429331 pbc="F F F"
Al		-0.09205377		1.18785961		-2.19968264		0.00215002		-0.00102784		0.00230753
Al		-0.72513679		1.19795946		1.03150676		0.00103038		0.00137275		0.00069952
Al		-3.05346778		0.14932650		-1.19123902		0.00048753		0.00032154		0.00014564
F		-4.19328372		1.08005945		-1.94036626		0.00085446		-0.00025123		0.00055401
F		-1.55196848		0.12308651		-2.20541644		-0.00128526		0.00084145		8.708e-05
F		-0.68246196		2.73286214		-2.28555470		-0.00149736		2.101e-05		-0.00107072
F		-2.29141584		1.13386767		0.12408814		-0.00016849		-0.00050783		0.00048749
F		0.28070079		0.92438498		-0.45079833		-0.00180315		6.84e-06		-0.00086982
F		-0.49804143		2.74588824		1.55993317		0.00010457		-0.00247979		-0.00086858
F		-0.61132222		-0.17508793		1.94460235		-0.00044235		0.00132237		-0.00081351
F		-3.26429714		-1.38543917		-0.61499392		0.00039369		0.00029291		-0.00084892
F		1.09048734		0.49715953		-3.11964612		0.00017596		8.782e-05		0.00019028
12
Lattice="0.0 0.0 0.0 0.0 0.0 0.0 0.0 0.0 0.0" Properties=species:S:1:pos:R:3:forces:R:3 energy=-44220.42439655 pbc="F F F"
Al		-0.09230156		1.18785334		-2.19946657		0.00158321		-0.00138349		0.00218458
Al		-0.72496802		1.19791301		1.03131587		0.00010274		0.00098603		-0.00062336
Al		-3.05328127		0.14931307		-1.19125763		0.00103577		-2.96e-06		0.0006624
F		-4.19233045		1.07994871		-1.94158044		-0.00015326		0.00049617		0.00017956
F		-1.55147001		0.12199099		-2.20496251		-0.00091366		0.0010475		1.557e-05
F		-0.68381230		2.73246497		-2.28456349		-0.00188219		0.00042107		-0.00129836
F		-2.29114877		1.13434916		0.12366576		-0.00021483		-0.00061019		0.00045935
F		0.28106380		0.92424112		-0.45079403		-0.00130767		-0.00041337		-0.00068782
F		-0.49736205		2.74565257		1.55980049		0.000387		-7.18e-05		0.00018785
F		-0.61190132		-0.17522827		1.94424373		-0.00013934		-0.00031093		0.00030598
F		-3.26514885		-1.38489842		-0.61392874		0.00066264		0.00020445		-0.00104925
F		1.09039980		0.49832676		-3.12003943		0.00083959		-0.00036247		-0.0003365
12
Lattice="0.0 0.0 0.0 0.0 0.0 0.0 0.0 0.0 0.0" Properties=species:S:1:pos:R:3:forces:R:3 energy=-44220.42052353 pbc="F F F"
Al		-0.09243995		1.18783683		-2.19931261		0.00169123		-0.00211305		0.00096835
Al		-0.72486702		1.19788713		1.03126381		-0.00046433		0.00139996		-0.00206365
Al		-3.05311295		0.14932762		-1.19126599		-0.00022171		0.00058201		0.00044426
F		-4.19154497		1.08008262		-1.94244222		0.00035015		9.156e-05		0.00067971
F		-1.55104617		0.12115070		-2.20450487		-0.00045545		0.00089943		-0.00024185
F		-0.68500782		2.73203330		-2.28425656		-0.00203504		0.00107067		-0.00125991
F		-2.29100961		1.13455258		0.12355026		-0.00025611		-0.00055236		0.00033732
F		0.28125502		0.92433615		-0.45078583		-0.00065915		-0.00060369		-0.00032068
F		-0.49690375		2.74547472		1.55985070		0.00045632		0.00155766		0.00091217
F		-0.61211200		-0.17538050		1.94389591		0.00012204		-0.00223169		0.00173066
F		-3.26595010		-1.38451551		-0.61331355		0.0008991		0.0002098		-0.00118072
F		1.09047832		0.49914138		-3.12024605		0.00057296		-0.0003103		-5.67e-06
12
Lattice="0.0 0.0 0.0 0.0 0.0 0.0 0.0 0.0 0.0" Properties=species:S:1:pos:R:3:forces:R:3 energy=-44220.42031170 pbc="F F F"
Al		-0.09259737		1.18780753		-2.19927609		0.00029655		-0.00090973		-0.00020284
Al		-0.72473161		1.19786984		1.03128411		-0.00093609		0.00087314		-0.00244946
Al		-3.05296729		0.14935782		-1.19119691		-0.00038101		1.847e-05		0.00056776
F		-4.19034644		1.08048249		-1.94348244		-0.00021461		0.00036777		0.00082579
F		-1.55053344		0.12014057		-2.20384108		5.931e-05		0.00052902		-0.00033042
F		-0.68655513		2.73149989		-2.28459850		-0.00136967		2.526e-05		-0.00094804
F		-2.29092167		1.13457857		0.12368570		-0.0003514		-0.00042535		6.305e-05
F		0.28135623		0.92483475		-0.45083894		0.000329		-0.00063385		0.00024877
F		-0.49652449		2.74522040		1.56030106		0.00037347		0.00296634		0.00136523
F		-0.61198577		-0.17568756		1.94342015		0.00031139		-0.00315084		0.00238396
F		-3.26718741		-1.38412527		-0.61273777		0.00123885		0.00090571		-0.00151185
F		1.09073339		0.49994796		-3.12028629		0.00064422		-0.00056594		-1.195e-05
12
Lattice="0.0 0.0 0.0 0.0 0.0 0.0 0.0 0.0 0.0" Properties=species:S:1:pos:R:3:forces:R:3 energy=-44220.42036701 pbc="F F F"
Al		-0.09271438		1.18778786		-2.19933324		0.00036321		-0.00129141		-0.00141123
Al		-0.72463871		1.19782762		1.03138298		-0.00060828		0.0006833		-0.00188882
Al		-3.05282525		0.14941821		-1.19113070		-0.00146798		0.00140003		-0.00011712
F		-4.18930039		1.08098124		-1.94432133		0.00042573		-0.00020309		0.00143199
F		-1.54998985		0.11916939		-2.20310926		0.0002941		8.26e-06		-0.00052582
F		-0.68806008		2.73089467		-2.28555673		-0.00108128		0.00022976		-0.00057875
F		-2.29080980		1.13463291		0.12381408		-0.00050399		-0.00032023		-5.017e-05
F		0.28149117		0.92571592		-0.45088554		0.00082373		-0.00039413		0.00068814
F		-0.49643041		2.74491465		1.56120340		8.652e-05		0.00267868		0.00117198
F		-0.61166273		-0.17622400		1.94278222		0.00029091		-0.00276605		0.00209891
F		-3.26840601		-1.38367456		-0.61220889		0.00141091		0.00035649		-0.00142331
F		1.09108546		0.50048310		-3.12020398		-3.357e-05		-0.00038161		0.00060419
12
Lattice="0.0 0.0 0.0 0.0 0.0 0.0 0.0 0.0 0.0" Properties=species:S:1:pos:R:3:forces:R:3 energy=-44220.42029592 pbc="F F F"
Al		-0.09277487		1.18777161		-2.19936015		-0.00209388		0.00245875		-0.00218427
Al		-0.72457960		1.19781518		1.03148807		0.00063056		2.015e-05		0.00065651
Al		-3.05266137		0.14944130		-1.19113180		-0.00257872		0.00027739		-0.00062496
F		-4.18844631		1.08128529		-1.94512628		0.00128159		-0.00101045		0.0024015
F		-1.54960790		0.11841654		-2.20284280		0.00052219		0.00015646		8.82e-05
F		-0.68938021		2.73058764		-2.28579314		0.00126791		-0.00479877		0.00038683
F		-2.29072565		1.13457924		0.12395260		-0.00062415		8.033e-05		-0.00049093
F		0.28148763		0.92562753		-0.45091880		0.0007471		0.00049013		0.00090209
F		-0.49586908		2.74488947		1.56146506		-0.000617		-0.00038396		-0.00013401
F		-0.61185187		-0.17639960		1.94290568		0.00028483		0.00039866		-3.624e-05
F		-3.26922101		-1.38341213		-0.61172778		0.00191481		0.0024347		-0.00240735
F		1.09136924		0.50132494		-3.12047767		-0.00073525		-0.00012339		0.00144263
12
Lattice="0.0 0.0 0.0 0.0 0.0 0.0 0.0 0.0 0.0" Properties=species:S:1:pos:R:3:forces:R:3 energy=-44220.42027956 pbc="F F F"
Al		-0.09279136		1.18778592		-2.19931444		-0.00214505		0.00241348		-0.0019969
Al		-0.72457059		1.19779337		1.03148883		0.00133043		-0.00024093		0.00201955
Al		-3.05262517		0.14940788		-1.19121405		-0.00271733		0.00080928		-0.00092523
F		-4.18835415		1.08133138		-1.94521845		0.00150444		-0.00122472		0.00253404
F		-1.54956825		0.11833459		-2.20293986		0.00040713		8.723e-05		0.00021228
F		-0.68963202		2.73054240		-2.28547527		0.00155275		-0.00515924		0.00062789
F		-2.29066452		1.13447778		0.12391371		-0.00073381		0.00021743		-0.00049419
F		0.28148737		0.92520260		-0.45089845		0.00050041		0.0008174		0.00069945
F		-0.49561588		2.74500030		1.56114075		-0.00089846		-0.00185526		-0.00068801
F		-0.61201336		-0.17624139		1.94332146		0.00020152		0.00205725		-0.00125569
F		-3.26930760		-1.38338502		-0.61172569		0.00194553		0.00210438		-0.00242733
F		1.09139452		0.50167717		-3.12064554		-0.00094756		-2.629e-05		0.00169415
12
Lattice="0.0 0.0 0.0 0.0 0.0 0.0 0.0 0.0 0.0" Properties=species:S:1:pos:R:3:forces:R:3 energy=-44220.42028376 pbc="F F F"
Al		-0.09318180		1.18777609		-2.20084755		-0.00161937		0.00154115		-0.00338248
Al		-0.72435106		1.19757856		1.03224676		-0.00025543		0.00056483		0.00084573
Al		-3.05227664		0.15021598		-1.18988084		-0.00285804		0.00094663		-0.00092206
F		-4.18465745		1.08308406		-1.94770087		0.00093517		-0.0007566		0.00240337
F		-1.54728747		0.11460422		-2.19852776		0.00107118		-9.019e-05		-0.00028674
F		-0.69388663		2.72841703		-2.29619667		0.00120623		-0.0039005		0.00067789
F		-2.29053649		1.13649023		0.12453614		-8.366e-05		-0.0002072		-8.185e-05
F		0.28229991		0.93552075		-0.45136829		0.00163753		0.00051067		0.00159444
F		-0.49869708		2.74198171		1.57130521		-0.00071728		-0.00107509		-0.00068035
F		-0.60912964		-0.18200377		1.93525835		0.00021059		0.00057809		0.00016675
F		-3.27345114		-1.38110029		-0.60831631		0.00187407		0.0017233		-0.00196313
F		1.09289451		0.49936243		-3.11807518		-0.001401		0.00016492		0.00162842
12
Lattice="0.0 0.0 0.0 0.0 0.0 0.0 0.0 0.0 0.0" Properties=species:S:1:pos:R:3:forces:R:3 energy=-44220.42028415 pbc="F F F"
Al		-0.09290320		1.18780649		-2.19969639		-0.00283459		0.00365001		-0.00323229
Al		-0.72451015		1.19773182		1.03171041		0.00100863		-0.00055463		0.003276
Al		-3.05244789		0.14960619		-1.19087642		-0.00344247		0.0004307		-0.00135636
F		-4.18730092		1.08163548		-1.94610684		0.00163168		-0.00141918		0.00304006
F		-1.54901944		0.11738667		-2.20201481		0.0008609		3.763e-05		0.00031022
F		-0.69097002		2.73005190		-2.28790656		0.00265729		-0.00721512		0.00119131
F		-2.29065266		1.13506613		0.12407199		-0.00019676		0.00023866		-0.00033711
F		0.28149749		0.92715030		-0.45106223		0.00102584		0.00142311		0.00130698
F		-0.49592625		2.74432651		1.56349487		-0.00115393		-0.00364585		-0.00161346
F		-0.61164583		-0.17758660		1.94170205		0.00015295		0.00380456		-0.0023438
F		-3.27025525		-1.38277611		-0.61066672		0.00214991		0.00284867		-0.00265365
F		1.09187312		0.50152821		-3.12021634		-0.00185946		0.00040143		0.0024121
12
Lattice="0.0 0.0 0.0 0.0 0.0 0.0 0.0 0.0 0.0" Properties=species:S:1:pos:R:3:forces:R:3 energy=-44220.42028417 pbc="F F F"
Al		-0.09347606		1.18782900		-2.20208250		-0.00104688		0.00021622		-0.00350972
Al		-0.72420924		1.19735964		1.03282086		-0.00080355		0.0013895		0.00114205
Al		-3.05203443		0.15082123		-1.18882515		-0.00291817		0.00167499		-0.00139954
F		-4.18200827		1.08433023		-1.94944528		0.000853		-0.00074083		0.00239951
F		-1.54560074		0.11186312		-2.19520342		0.00165274		0.00023536		-0.00034205
F		-0.69691742		2.72686832		-2.30470028		0.00082498		-0.00301769		0.00077105
F		-2.29041027		1.13817353		0.12489202		0.00049097		-0.00064313		0.00050322
F		0.28296133		0.94361924		-0.45172868		0.00161352		0.00054418		0.00183257
F		-0.50120211		2.73958367		1.57928993		-0.00071675		-0.0023536		-0.0012454
F		-0.60696086		-0.18659399		1.92893495		5.107e-05		0.00124		-4.554e-05
F		-3.27645566		-1.37932618		-0.60556352		0.00176519		0.00110651		-0.00156843
F		1.09405271		0.49739917		-3.11595592		-0.00176612		0.00034848		0.00146228
12
Lattice="0.0 0.0 0.0 0.0 0.0 0.0 0.0 0.0 0.0" Properties=species:S:1:pos:R:3:forces:R:3 energy=-44220.42028411 pbc="F F F"
Al		-0.09318129		1.18780583		-2.20067947		-0.00209934		0.00406183		-0.00561494
Al		-0.72434239		1.19757730		1.03222332		-0.00061259		0.00052903		0.0027887
Al		-3.05219909		0.15016756		-1.18992557		-0.00470789		0.00010034		-0.00196343
F		-4.18521877		1.08240300		-1.94768642		0.00168526		-0.00144425		0.0036372
F		-1.54782043		0.11526803		-2.19947274		0.00244678		0.00058867		-2.543e-05
F		-0.69332453		2.72895614		-2.29451804		0.00326143		-0.00887091		0.00154842
F		-2.29061587		1.13667070		0.12437421		0.00113148		-0.00039904		0.0003719
F		0.28189471		0.93322417		-0.45141482		0.00135796		0.00175286		0.00271916
F		-0.49782568		2.74250040		1.56987174		-0.00096207		-0.00536925		-0.00238315
F		-0.61008064		-0.18127715		1.93671894		8.757e-05		0.00434427		-0.00228834
F		-3.27235957		-1.38137701		-0.60840188		0.00214163		0.00335429		-0.00226817
F		1.09281254		0.50000802		-3.11865628		-0.00373023		0.00135216		0.00347808
12
Lattice="0.0 0.0 0.0 0.0 0.0 0.0 0.0 0.0 0.0" Properties=species:S:1:pos:R:3:forces:R:3 energy=-44220.42028411 pbc="F F F"
Al		-0.09374873		1.18794202		-2.20362687		-0.00122866		-0.00059733		-0.00200267
Al		-0.72412464		1.19710731		1.03345254		-0.00048859		0.00220299		0.0016813
Al		-3.05178110		0.15152176		-1.18753071		-0.00314379		0.00197401		-0.00188592
F		-4.17934643		1.08560700		-1.95106878		0.00147748		-0.00131043		0.00240845
F		-1.54370093		0.10880930		-2.19137365		0.00252387		0.00176149		0.00016124
F		-0.69996786		2.72524446		-2.31513467		0.00066817		-0.00359359		0.00073736
F		-2.29020849		1.14046080		0.12506811		0.00100637		-0.00122852		0.00122707
F		0.28394826		0.95377905		-0.45213086		-4.439e-05		0.00051906		0.00152943
F		-0.50447002		2.73657684		1.58918854		-0.00065802		-0.00465995		-0.00207104
F		-0.60461561		-0.19232165		1.92092273		-0.00011784		0.00305714		-0.00095496
F		-3.27956030		-1.37728203		-0.60211220		0.00167244		0.00133682		-0.00155449
F		1.09531485		0.49448215		-3.11322119		-0.00166705		0.00053833		0.00072422
12
Lattice="0.0 0.0 0.0 0.0 0.0 0.0 0.0 0.0 0.0" Properties=species:S:1:pos:R:3:forces:R:3 energy=-44221.78633116 pbc="F F F"
Al		-0.09350913		1.18797416		-2.20225292		-0.00205006		0.00309625		-0.00412807
Al		-0.72424677		1.19727056		1.03286947		0.0002014		0.00286509		0.00386644
Al		-3.05195062		0.15085417		-1.18858111		-0.00537794		0.00080363		-0.00279428
F		-4.18286222		1.08340855		-1.94916519		0.00240506		-0.00209585		0.00373905
F		-1.54611239		0.11227557		-2.19585398		0.00466461		0.00302422		0.0004593
F		-0.69623047		2.72756517		-2.30496855		0.00338764		-0.01070325		0.0016375
F		-2.29029799		1.13935586		0.12422398		0.00214811		-0.00148826		0.0016763
F		0.28307144		0.94323741		-0.45182120		-0.00153758		0.00199654		0.00277419
F		-0.50105869		2.73959111		1.57985256		-0.00118118		-0.0107952		-0.00408576
F		-0.60806039		-0.18726209		1.92867666		-0.00027607		0.00785114		-0.00409289
F		-3.27513447		-1.37934706		-0.60476204		0.00207405		0.00347713		-0.00192979
F		1.09413070		0.49700360		-3.11578469		-0.00445804		0.00196857		0.002878
12
Lattice="0.0 0.0 0.0 0.0 0.0 0.0 0.0 0.0 0.0" Properties=species:S:1:pos:R:3:forces:R:3 energy=-44221.76440037 pbc="F F F"
Al		-0.09384913		1.18810310		-2.20518805		-0.00347583		0.00122024		0.00130859
Al		-0.72420721		1.19699288		1.03402686		0.00114068		0.00216146		0.0021792
Al		-3.05139100		0.15218099		-1.18641222		-0.00458173		0.00034585		-0.00065854
F		-4.17731241		1.08661222		-1.95209304		0.00344708		-0.00280454		0.00222475
F		-1.54178909		0.10591532		-2.18788040		0.00310731		0.00469105		0.00127026
F		-0.70255785		2.72388600		-2.32535865		0.00189036		-0.00790813		0.00056665
F		-2.28992217		1.14298288		0.12491721		0.00119864		-0.00112514		0.00136025
F		0.28515272		0.96425119		-0.45246886		-0.00340083		0.00035478		0.00072894
F		-0.50767262		2.73350578		1.59937906		-0.00070598		-0.0077415		-0.0032828
F		-0.60308867		-0.19812494		1.91255810		0.00019976		0.00594492		-0.00237671
F		-3.28184677		-1.37531970		-0.59845059		0.00176807		0.00376677		-0.00293658
F		1.09622321		0.49094128		-3.11059643		-0.00058752		0.00109425		-0.00038401
12
Lattice="0.0 0.0 0.0 0.0 0.0 0.0 0.0 0.0 0.0" Properties=species:S:1:pos:R:3:forces:R:3 energy=-44221.74480674 pbc="F F F"
Al		-0.09355038		1.18837854		-2.20398472		-0.00575296		0.00415011		0.00314662
Al		-0.72449719		1.19706546		1.03340873		0.00406003		0.00382137		0.00701922
Al		-3.05149335		0.15136900		-1.18757620		-0.00596086		0.00016488		-0.00092792
F		-4.18140612		1.08402476		-1.94961991		0.00423029		-0.00362626		0.00253611
F		-1.54428168		0.10956226		-2.19280153		0.00520554		0.00698024		0.00227903
F		-0.69856342		2.72657585		-2.31555947		0.00481077		-0.01558733		0.00142718
F		-2.28980242		1.14232740		0.12345857		0.00230525		-0.00114177		0.00222795
F		0.28458486		0.95391109		-0.45210538		-0.00707467		0.00216511		0.00040347
F		-0.50407201		2.73646755		1.59044627		-0.00208963		-0.01845627		-0.00682992
F		-0.60741225		-0.19353883		1.92015858		-8.121e-05		0.01436997		-0.00781844
F		-3.27677604		-1.37731833		-0.60049805		0.00220057		0.00494674		-0.00362772
F		1.09500900		0.49310225		-3.11289389		-0.00185312		0.00221322		0.00016442
12
Lattice="0.0 0.0 0.0 0.0 0.0 0.0 0.0 0.0 0.0" Properties=species:S:1:pos:R:3:forces:R:3 energy=-44221.74500114 pbc="F F F"
Al		-0.09395898		1.18815508		-2.20665063		-0.00487966		0.00255635		0.00459775
Al		-0.72424173		1.19698707		1.03464930		0.00194095		0.00121978		0.00153313
Al		-3.05087026		0.15290105		-1.18550773		-0.00475414		-0.0023338		0.00269805
F		-4.17449528		1.08818331		-1.95348430		0.00394289		-0.00292631		0.0007821
F		-1.53939475		0.10258766		-2.18394942		0.00168274		0.00612673		0.00184235
F		-0.70583220		2.72202954		-2.33527163		0.00252372		-0.00964129		0.00013001
F		-2.28972001		1.14479611		0.12526231		0.00087713		3.889e-05		0.0005707
F		0.28620753		0.97491155		-0.45275231		-0.00502827		-0.00026398		-0.00057441
F		-0.51084324		2.73045273		1.60937308		-0.00055155		-0.00773919		-0.00360874
F		-0.60119057		-0.20352154		1.90436926		0.00109109		0.00629605		-0.00220876
F		-3.28478306		-1.37321471		-0.59519394		0.00158168		0.0052039		-0.00444396
F		1.09686154		0.48765916		-3.10841099		0.00157344		0.00146286		-0.0013182
12
Lattice="0.0 0.0 0.0 0.0 0.0 0.0 0.0 0.0 0.0" Properties=species:S:1:pos:R:3:forces:R:3 energy=-44221.74509149 pbc="F F F"
Al		-0.09360432		1.18856111		-2.20560873		-0.00813818		0.00622902		0.00884533
Al		-0.72463513		1.19705666		1.03408118		0.00623643		0.00256382		0.00783496
Al		-3.05082491		0.15204137		-1.18679522		-0.00620574		-0.00269352		0.00359258
F		-4.17875309		1.08551230		-1.95070946		0.0046071		-0.00373309		0.00034851
F		-1.54180641		0.10621439		-2.18907806		0.00359163		0.00897431		0.00303928
F		-0.70183965		2.72494018		-2.32575147		0.00631824		-0.01912074		0.00102835
F		-2.28946299		1.14430160		0.12353328		0.00199407		0.00054615		0.00140526
F		0.28587867		0.96484605		-0.45234492		-0.01012356		0.00179884		-0.00187303
F		-0.50727377		2.73341147		1.60090061		-0.00229641		-0.02091361		-0.00818284
F		-0.60608113		-0.19924752		1.91189992		0.00096888		0.01728022		-0.00918417
F		-3.27931121		-1.37513955		-0.59691856		0.00195285		0.00616038		-0.00560576
F		1.09545293		0.48942893		-3.11077557		0.0010947		0.00290822		-0.00124847
12
Lattice="0.0 0.0 0.0 0.0 0.0 0.0 0.0 0.0 0.0" Properties=species:S:1:pos:R:3:forces:R:3 energy=-44221.74509408 pbc="F F F"
Al		-0.09436063		1.18798349		-2.20788543		-0.00270785		0.00114719		0.00660182
Al		-0.72398011		1.19692792		1.03530409		0.00175313		0.00113014		0.00094905
Al		-3.05044794		0.15369648		-1.18465718		-0.00116165		-0.00352469		0.00625827
F		-4.17010616		1.09070013		-1.95590611		0.00048904		0.00019908		-0.00240645
F		-1.53654124		0.09851715		-2.17909701		-0.00085023		0.00472446		0.00093942
F		-0.71050537		2.71927817		-2.34461937		0.00127987		-0.00578921		-0.00048417
F		-2.28960514		1.14558536		0.12635712		0.0002794		0.00107717		-0.00011622
F		0.28706692		0.98518552		-0.45301351		-0.00433518		-0.00102051		-0.00199354
F		-0.51398657		2.72764264		1.61839742		-0.00039026		-0.00615346		-0.00321554
F		-0.59788960		-0.20826372		1.89694823		0.00165885		0.00470392		-0.0010875
F		-3.28955688		-1.37090947		-0.59287273		0.00078936		0.00217608		-0.00379047
F		1.09765171		0.48558333		-3.10652253		0.00319552		0.00132981		-0.00165467
12
Lattice="0.0 0.0 0.0 0.0 0.0 0.0 0.0 0.0 0.0" Properties=species:S:1:pos:R:3:forces:R:3 energy=-44221.74509528 pbc="F F F"
Al		-0.09361659		1.18854338		-2.20718511		-0.00862394		0.00611207		0.00948843
Al		-0.72457870		1.19704304		1.03500789		0.00260757		3.234e-05		0.00433872
Al		-3.05017426		0.15294336		-1.18570737		-0.0077231		-0.00536274		0.00519302
F		-4.17533907		1.08747333		-1.95254096		0.00670067		-0.00480901		0.00065952
F		-1.53915590		0.10297580		-2.18492642		-0.0008589		0.00932737		0.00463751
F		-0.70450004		2.72300372		-2.33637888		0.00510191		-0.0165022		0.00097214
F		-2.28963796		1.14527286		0.12501159		0.00140052		0.00279842		-0.00113913
F		0.28615243		0.97581934		-0.45264105		-0.00724079		0.0004403		-0.00377238
F		-0.51116109		2.73023413		1.61107805		-0.00058949		-0.01399854		-0.00629993
F		-0.60348037		-0.20438808		1.90394247		0.00303207		0.01226769		-0.00561754
F		-3.28242175		-1.37298694		-0.59393801		0.00144985		0.00726299		-0.00731098
F		1.09565231		0.48599307		-3.10928921		0.00474363		0.00243131		-0.00114938
12
Lattice="0.0 0.0 0.0 0.0 0.0 0.0 0.0 0.0 0.0" Properties=species:S:1:pos:R:3:forces:R:3 energy=-44221.74509704 pbc="F F F"
Al		-0.09517260		1.18771463		-2.20891126		0.00697891		-0.00690497		0.00521591
Al		-0.72335310		1.19678762		1.03616140		-0.00423513		0.00255925		-0.00146379
Al		-3.04943539		0.15481516		-1.18386672		0.0066308		-0.00470576		0.01306071
F		-4.16385887		1.09342009		-1.95954141		-0.01060073		0.01015288		-0.01013519
F		-1.53302162		0.09373000		-2.17362256		-0.00454549		0.00049417		-0.00174982
F		-0.71644391		2.71577139		-2.35293875		-0.00289657		0.006785		-0.00135039
F		-2.28953043		1.14594710		0.12813966		0.00069956		0.00347902		-0.00131569
F		0.28744147		0.99477810		-0.45320017		0.00084477		-0.00210648		-0.00446364
F		-0.51681341		2.72493340		1.62674379		0.00100656		-0.00193305		-0.00158019
F		-0.59507342		-0.21254417		1.89032153		0.00407567		-0.00086043		0.00247852
F		-3.29457350		-1.36789361		-0.59083239		-0.00177162		-0.009469		0.00023282
F		1.09757378		0.48446729		-3.10602012		0.00381325		0.00250936		0.00107076
12
Lattice="0.0 0.0 0.0 0.0 0.0 0.0 0.0 0.0 0.0" Properties=species:S:1:pos:R:3:forces:R:3 energy=-44221.74509637 pbc="F F F"
Al		-0.09342040		1.18835125		-2.20779630		-0.01393179		0.01380177		0.01599321
Al		-0.72478416		1.19739441		1.03502635		0.00950131		-0.00448661		0.01020313
Al		-3.05067008		0.15300814		-1.18599483		-0.00391744		-0.01176184		0.00980449
F		-4.17437542		1.08930277		-1.95294299		0.00927478		-0.00709239		-0.0001754
F		-1.53771141		0.10086737		-2.18293483		-0.00546458		0.00980099		0.00629119
F		-0.70716336		2.72171220		-2.34060227		0.00892059		-0.02497688		0.00070201
F		-2.28957438		1.14505347		0.12491953		0.00136839		0.00398153		-0.00051274
F		0.28728464		0.98095445		-0.45259863		-0.01151825		0.0010785		-0.0068476
F		-0.51224256		2.72923572		1.61555538		-0.00353185		-0.01880572		-0.00929399
F		-0.60091823		-0.20643293		1.90035050		0.00068123		0.019757		-0.01011681
F		-3.28567395		-1.37238936		-0.59301399		0.00290798		0.01647305		-0.01265782
F		1.09698831		0.48486950		-3.10753492		0.00570964		0.0022306		-0.00338967
12
Lattice="0.0 0.0 0.0 0.0 0.0 0.0 0.0 0.0 0.0" Properties=species:S:1:pos:R:3:forces:R:3 energy=-44221.74509612 pbc="F F F"
Al		-0.09538230		1.18659350		-2.20949582		0.00091858		0.00939084		0.00824697
Al		-0.72335488		1.19743237		1.03514229		0.0182681		-0.00962051		0.00636208
Al		-3.05164339		0.15478635		-1.18350404		0.00670475		-0.00291169		0.01340219
F		-4.16087791		1.09829527		-1.96145058		-0.00167233		0.00181911		-0.00699421
F		-1.53042150		0.08799101		-2.16606286		-0.00044662		-0.00249722		-0.00751316
F		-0.72544627		2.71084785		-2.36295389		0.00466662		-0.00989382		-0.00375444
F		-2.28875420		1.14703987		0.12691217		-0.00401876		-0.00255929		0.00423735
F		0.29135044		1.00779690		-0.45382095		-0.01214709		-0.00143312		0.00270157
F		-0.51974410		2.72175277		1.63661633		-0.00458437		-0.00149365		-0.0030598
F		-0.58521199		-0.21755030		1.87951469		-0.00595179		0.0106031		-0.00547119
F		-3.30651345		-1.36663147		-0.59003164		0.0029355		0.00621429		-0.00392515
F		1.10373855		0.48357287		-3.09843270		-0.00467259		0.00238195		-0.00423221
12
Lattice="0.0 0.0 0.0 0.0 0.0 0.0 0.0 0.0 0.0" Properties=species:S:1:pos:R:3:forces:R:3 energy=-44221.74509619 pbc="F F F"
Al		-0.09558622		1.18627199		-2.21106715		-0.00476372		0.01040146		0.00910553
Al		-0.72306774		1.19682921		1.03544797		0.02316236		-0.00144092		0.00679077
Al		-3.05318914		0.15545296		-1.18089802		0.01293021		0.00595682		0.00212403
F		-4.15657705		1.10151475		-1.96450231		0.0026009		-0.00110215		-0.00252568
F		-1.52796728		0.08391657		-2.15835723		-0.0013313		-0.00303682		-0.00491396
F		-0.72946870		2.70708477		-2.37956788		0.00062921		-0.00475546		-0.0042099
F		-2.28933610		1.14804178		0.12912770		-0.00885568		-0.00744411		0.00388845
F		0.29202407		1.02418617		-0.45452395		-0.01151422		-0.00332385		0.00279953
F		-0.52525082		2.71697819		1.64901991		-0.00589752		0.00160967		-0.0005068
F		-0.57543843		-0.22477046		1.86649213		-0.00998317		0.00241		-0.00037101
F		-3.31649376		-1.36434637		-0.58734375		0.0047724		0.00536725		-0.00138788
F		1.10809018		0.48076743		-3.09139442		-0.00174946		-0.00464189		-0.01079308
12
Lattice="0.0 0.0 0.0 0.0 0.0 0.0 0.0 0.0 0.0" Properties=species:S:1:pos:R:3:forces:R:3 energy=-44221.74509617 pbc="F F F"
Al		-0.09702168		1.18431252		-2.21146906		0.00682694		0.0349195		0.00230546
Al		-0.72078407		1.19646964		1.03747909		0.04535631		-0.00977224		0.02952846
Al		-3.05432605		0.15738593		-1.17886669		0.01509444		0.00131447		-0.01947918
F		-4.14988684		1.10700632		-1.96977940		0.00867981		-0.00343782		0.0090434
F		-1.52563931		0.07754363		-2.15188355		0.00275082		0.00400485		-0.00145021
F		-0.73595827		2.70398311		-2.38553660		0.01419286		-0.0447479		0.00628493
F		-2.28752932		1.14616238		0.13206168		-0.01489019		-0.01411003		0.00212134
F		0.29644311		1.02947354		-0.45371526		-0.03595178		0.00224049		-0.00029061
F		-0.53260752		2.71845608		1.65316872		-0.00490654		-0.03808963		-0.01366218
F		-0.56719634		-0.22790347		1.86654195		-0.01628713		0.05276131		-0.02976699
F		-3.32613554		-1.36330958		-0.59138690		0.00344945		0.01077313		0.00630968
F		1.10838084		0.48234690		-3.09418099		-0.02431499		0.00414386		0.0090559
12
Lattice="0.0 0.0 0.0 0.0 0.0 0.0 0.0 0.0 0.0" Properties=species:S:1:pos:R:3:forces:R:3 energy=-44222.42635766 pbc="F F F"
Al		-0.09848393		1.18374715		-2.21589291		0.02131531		0.01144554		-0.01133538
Al		-0.71959468		1.19514998		1.03942883		0.02265428		-0.00557967		0.00847686
Al		-3.05302918		0.16161715		-1.17162185		0.01532958		0.00695754		-0.02928905
F		-4.13260611		1.11319626		-1.98205508		0.00808296		-0.00172759		0.01411687
F		-1.51582981		0.06550039		-2.12995326		-0.00255466		-0.00371674		-0.00147347
F		-0.74901397		2.69183725		-2.42863002		-0.00307213		-0.00456784		0.00515384
F		-2.28986297		1.15252478		0.13963084		-0.01889469		-0.0144612		-0.0044787
F		0.29473897		1.07359570		-0.45577007		-0.01707716		-0.00199859		-0.00211324
F		-0.54587908		2.70242199		1.69071899		0.00362069		0.00067327		0.00244344
F		-0.55273662		-0.24794946		1.82974564		-0.01046768		0.01319096		-0.00561924
F		-3.34278052		-1.35338431		-0.57936694		0.00040941		0.0010257		0.01255573
F		1.11281690		0.47367011		-3.08380118		-0.01934589		-0.00124136		0.01156234
12
Lattice="0.0 0.0 0.0 0.0 0.0 0.0 0.0 0.0 0.0" Properties=species:S:1:pos:R:3:forces:R:3 energy=-44222.30804581 pbc="F F F"
Al		-0.09979293		1.18301482		-2.21843588		0.02263611		0.01474899		-0.0118181
Al		-0.71825944		1.19469613		1.04197268		0.01571209		-0.00575354		0.01200323
Al		-3.05183653		0.16403273		-1.16887732		0.01465681		0.00420759		-0.0377429
F		-4.12015706		1.11968645		-1.98993563		0.01208113		-0.00594166		0.02095679
F		-1.50961038		0.05677021		-2.11908111		-0.00873066		0.0009803		0.00452317
F		-0.75750291		2.68557716		-2.44872094		-0.00182495		-0.0102606		0.01058015
F		-2.29103637		1.15205067		0.14543809		-0.0135005		-0.01077424		-0.00638605