------------------------------------------------------------
          Invoking FHI-aims ...

          When using FHI-aims, please cite the following reference:

            Volker Blum, Ralf Gehrke, Felix Hanke, Paula Havu,
            Ville Havu, Xinguo Ren, Karsten Reuter, and Matthias Scheffler,
            'Ab Initio Molecular Simulations with Numeric Atom-Centered Orbitals',
            Computer Physics Communications 180, 2175-2196 (2009)

          In addition, many other developments in FHI-aims are likely important for
          your particular application. A partial list of references is given at the end of
          this file. Thank you for giving credit to the authors of these developments.

          For any questions about FHI-aims, please visit our slack channel at

            https://fhi-aims.slack.com

          and our main development and support site at

            https://aims-git.rz-berlin.mpg.de .

          The latter site, in particular, has a wiki to collect information, as well
          as an issue tracker to log discussions, suggest improvements, and report issues
          or bugs. https://aims-git.rz-berlin.mpg.de is also the main development site
          of the project and all new and updated code versions can be obtained there.
          Please send an email to aims-coordinators@fhi-berlin.mpg.de and we will add
          you to these sites. They are for you and everyone is welcome there.

------------------------------------------------------------



  Date     :  20211214, Time     :  141723.846
  Time zero on CPU 1             :   0.561150000000000E-01  s.
  Internal wall clock time zero  :           408723443.846  s.

  FHI-aims created a unique identifier for this run for later identification
  aims_uuid : 88154C0F-5682-4D6A-AE19-E6116633170A

  Build configuration of the current instance of FHI-aims
  -------------------------------------------------------
  FHI-aims version      : 210914
  Commit number         : GITDIR-NOTFOUND
  CMake host system     : Linux-3.10.0-693.17.1.el7.x86_64
  CMake version         : 3.21.1
  Fortran compiler      : /shared/ucl/apps/intel/2018.Update3/impi/2018.3.222/intel64/bin/mpiifort (Intel) version 18.0.3.20180410
  Fortran compiler flags: -O3 -ip -fp-model precise
  C compiler            : /shared/ucl/apps/intel/2018.Update3/compilers_and_libraries_2018.3.222/linux/bin/intel64/icc (Intel) version 18.0.3.20180410
  C compiler flags      : -O3 -ip -fp-model precise -std=gnu99
  ELPA2 kernel          : AVX2
  Using MPI
  Using ScaLAPACK
  Using LibXC
  Using i-PI
  Using RLSY
  Linking against: /shared/ucl/apps/intel/2019.Update5/compilers_and_libraries_2019.5.281/linux/mkl/lib/intel64/libmkl_intel_lp64.so
                   /shared/ucl/apps/intel/2019.Update5/compilers_and_libraries_2019.5.281/linux/mkl/lib/intel64/libmkl_sequential.so
                   /shared/ucl/apps/intel/2019.Update5/compilers_and_libraries_2019.5.281/linux/mkl/lib/intel64/libmkl_core.so
                   /shared/ucl/apps/intel/2019.Update5/compilers_and_libraries_2019.5.281/linux/mkl/lib/intel64/libmkl_blacs_intelmpi_lp64.so
                   /shared/ucl/apps/intel/2019.Update5/compilers_and_libraries_2019.5.281/linux/mkl/lib/intel64/libmkl_scalapack_lp64.so

  Using       24 parallel tasks.
  Task        0 on host node-k98k-006 reporting.
  Task        1 on host node-k98k-006 reporting.
  Task        2 on host node-k98k-006 reporting.
  Task        3 on host node-k98k-006 reporting.
  Task        4 on host node-k98k-006 reporting.
  Task        5 on host node-k98k-006 reporting.
  Task        6 on host node-k98k-006 reporting.
  Task        7 on host node-k98k-006 reporting.
  Task        8 on host node-k98k-006 reporting.
  Task        9 on host node-k98k-006 reporting.
  Task       10 on host node-k98k-006 reporting.
  Task       11 on host node-k98k-006 reporting.
  Task       12 on host node-k98k-006 reporting.
  Task       13 on host node-k98k-006 reporting.
  Task       14 on host node-k98k-006 reporting.
  Task       15 on host node-k98k-006 reporting.
  Task       16 on host node-k98k-006 reporting.
  Task       17 on host node-k98k-006 reporting.
  Task       18 on host node-k98k-006 reporting.
  Task       19 on host node-k98k-006 reporting.
  Task       20 on host node-k98k-006 reporting.
  Task       21 on host node-k98k-006 reporting.
  Task       22 on host node-k98k-006 reporting.
  Task       23 on host node-k98k-006 reporting.

  Performing system and environment tests:
  | Environment variable OMP_NUM_THREADS correctly set to 1.
  | Checking for ScaLAPACK...
  | Testing pdtran()...
  | All pdtran() tests passed.

  Obtaining array dimensions for all initial allocations:
  
  -----------------------------------------------------------------------
  Parsing control.in (first pass over file, find array dimensions only).
  The contents of control.in will be repeated verbatim below
  unless switched off by setting 'verbatim_writeout .false.' .
  in the first line of control.in .
  -----------------------------------------------------------------------
  
  #########################################################################################  Physical model
  #########################################################################################
  xc                 pbesol
  spin               none
  relativistic       atomic_zora scalar
  charge             0.0
  #  SCF convergence
  occupation_type    gaussian 0.01
  mixer              pulay
  n_max_pulay        10
  charge_mix_param   0.5
  sc_accuracy_rho    1E-5
  sc_accuracy_eev    1E-3
  sc_accuracy_etot   1E-6
  sc_accuracy_forces 1E-4
  sc_iter_limit      1500
  #  Relaxation
  relax_geometry   bfgs 1.e-3
  
  ################################################################################
  #
  #  FHI-aims code project
  #  VB, Fritz-Haber Institut, 2009
  #
  #  Suggested "light" defaults for Al atom (to be pasted into control.in file)
  #  Be sure to double-check any results obtained with these settings for post-processing,
  #  e.g., with the "tight" defaults and larger basis sets.
  #
  ################################################################################
    species        Al
  #     global species definitions
      nucleus             13
      mass                26.9815386
  #
      l_hartree           4
  #
      cut_pot             3.5          1.5  1.0
      basis_dep_cutoff    1e-4
  #
      radial_base         41 5.0
      radial_multiplier   1
      angular_grids       specified
        division   0.6594  110
        division   0.8170  194
        division   0.9059  302
  #      division   1.0363  434
  #      division   1.1443  590
  #      division   1.2621  770
  #      division   2.8177  974
  #      outer_grid   974
        outer_grid   302
  ################################################################################
  #
  #  Definition of "minimal" basis
  #
  ################################################################################
  #     valence basis states
      valence      3  s   2.
      valence      3  p   1.
  #     ion occupancy
      ion_occ      3  s   1.
      ion_occ      2  p   6.
  ################################################################################
  #
  #  Suggested additional basis functions. For production calculations,
  #  uncomment them one after another (the most important basis functions are
  #  listed first).
  #
  #  Constructed for dimers: 2.0 A, 2.5 A, 3.0 A, 3.75 A, 4.5 A
  #
  ################################################################################
  #  "First tier" - improvements: -199.47 meV to -10.63 meV
       ionic 3 d auto
       ionic 3 p auto
  #     hydro 4 f 4.7
       ionic 3 s auto
  #  "Second tier" - improvements: -5.35 meV to -1.57 meV
  #     hydro 5 g 7
  #     hydro 3 d 6
  #     hydro 2 s 11.6
  #     hydro 2 p 0.9
  #  "Third tier" - improvements: -0.63 meV to -0.20 meV
  #     hydro 5 f 7.6
  #     hydro 4 p 7.2
  #     hydro 4 s 3.7
  #     hydro 4 d 7.6
  #  "Fourth tier" - improvements: -0.17 meV to -0.08 meV
  #     hydro 4 d 13.6
  #     hydro 5 g 11.2
  #     hydro 4 d 0.9
  #     hydro 1 s 0.4
  #     hydro 4 p 0.1
  #     hydro 5 f 9.8
  #  Further basis functions that fell out of the optimization - noise level...
  #     hydro 4 p 5
  
  ################################################################################
  #
  #  FHI-aims code project
  #  VB, Fritz-Haber Institut, 2009
  #
  #  Suggested "light" defaults for F atom (to be pasted into control.in file)
  #  Be sure to double-check any results obtained with these settings for post-processing,
  #  e.g., with the "tight" defaults and larger basis sets.
  #
  ################################################################################
    species        F
  #     global species definitions
      nucleus             9
      mass                18.9984032
  #
      l_hartree           4
  #
      cut_pot             3.5  1.5  1.0
      basis_dep_cutoff    1e-4
  #
      radial_base         37 5.0
      radial_multiplier   1
      angular_grids specified
        division   0.4014  110
        division   0.5291  194
        division   0.6019  302
  #      division   0.6814  434
  #      division   0.7989  590
  #      division   0.8965  770
  #      division   1.3427  974
  #      outer_grid   974
        outer_grid   302
  ################################################################################
  #
  #  Definition of "minimal" basis
  #
  ################################################################################
  #     valence basis states
      valence      2  s   2.
      valence      2  p   5.
  #     ion occupancy
      ion_occ      2  s   1.
      ion_occ      2  p   4.
  ################################################################################
  #
  #  Suggested additional basis functions. For production calculations,
  #  uncomment them one after another (the most important basis functions are
  #  listed first).
  #
  #  Constructed for dimers: 1.2 A, 1.418 A, 1.75 A, 2.25 A, 3.25 A
  #
  ################################################################################
  #  "First tier" - improvements: -149.44 meV to -45.88 meV
       hydro 2 p 1.7
       hydro 3 d 7.4
       hydro 3 s 6.8
  #  "Second tier" - improvements: -12.96 meV to -1.56 meV
  #     hydro 4 f 11.2
  #     ionic 2 p auto
  #     hydro 1 s 0.75
  #     hydro 4 d 8.8
  #     hydro 5 g 16.8
  #  "Third tier" - improvements: -0.58 meV to -0.05 meV
  #     hydro 3 p 6.2
  #     hydro 3 s 3.2
  #     hydro 4 f 9.6
  #     hydro 3 s 19.6
  #     hydro 4 d 8.6
  #     hydro 5 g 14.4
  # Further basis functions: -0.05 meV and below
  #     hydro 3 p 4.2
  
  -----------------------------------------------------------------------
  Completed first pass over input file control.in .
  -----------------------------------------------------------------------
  
  
  -----------------------------------------------------------------------
  Parsing geometry.in (first pass over file, find array dimensions only).
  The contents of geometry.in will be repeated verbatim below
  unless switched off by setting 'verbatim_writeout .false.' .
  in the first line of geometry.in .
  -----------------------------------------------------------------------
  
  #src_path:/scratch/scratch/uccatka/work/AlF3/clusters/rq/n3/n3_rq/ranked/006//scratch/scratch/uccatka/work/AlF3/clusters/rq/n3/n3_rq
  atom       0.275529   -2.328041   -1.827141   Al
  atom       2.034701   -0.540947   -0.807450   Al
  atom      -0.335181    0.309110   -1.802045   Al
  atom       3.625117   -0.180023   -0.031593    F
  atom      -0.166832   -4.032157   -2.229569    F
  atom       2.101026   -1.811793   -2.287933    F
  atom       1.529485    0.656214   -2.264446    F
  atom      -1.483236    1.652302   -2.175474    F
  atom      -1.142593   -1.274952   -0.995750    F
  atom      -0.116856   -1.016258   -3.218736    F
  atom       0.503748    0.397520   -0.041460    F
  atom       1.075288   -2.070488   -0.064946    F
  
  -----------------------------------------------------------------------
  Completed first pass over input file geometry.in .
  -----------------------------------------------------------------------
  

  Basic array size parameters:
  | Number of species                 :        2
  | Number of atoms                   :       12
  | Max. basis fn. angular momentum   :        2
  | Max. atomic/ionic basis occupied n:        3
  | Max. number of basis fn. types    :        3
  | Max. radial fns per species/type  :        5
  | Max. logarithmic grid size        :     1340
  | Max. radial integration grid size :       41
  | Max. angular integration grid size:      302
  | Max. angular grid division number :        8
  | Radial grid for Hartree potential :     1340
  | Number of spin channels           :        1

------------------------------------------------------------
          Reading file control.in.
------------------------------------------------------------
  XC: Using PBEsol gradient-corrected functionals.
  Spin treatment: No spin polarisation.
  Scalar relativistic treatment of kinetic energy: on-site free-atom approximation to ZORA.
  Charge =   0.000000E+00: Neutral system requested explicitly.
  Occupation type: Gaussian broadening, width =   0.100000E-01 eV.
  Using pulay charge density mixing.
  Pulay mixing - number of memorized iterations:   10
  Charge density mixing - mixing parameter:     0.5000
  Convergence accuracy of self-consistent charge density:  0.1000E-04
  Convergence accuracy of sum of eigenvalues:  0.1000E-02
  Convergence accuracy of total energy:  0.1000E-05
  Convergence accuracy of forces:  0.1000E-03
  Maximum number of s.-c. iterations  :  1500
  Geometry relaxation: Modified BFGS - TRM (trust radius method) for lattice optimization.
  Convergence accuracy for geometry relaxation: Maximum force <   0.100000E-02 eV/A.
 
  Reading configuration options for species Al                  .
  | Found nuclear charge :  13.0000
  | Found atomic mass :    26.9815386000000      amu
  | Found l_max for Hartree potential  :   4
  | Found cutoff potl. onset [A], width [A], scale factor :    3.50000    1.50000    1.00000
  | Threshold for basis-dependent cutoff potential is   0.100000E-03
  | Found data for basic radial integration grid :    41 points, outermost radius =    5.000 A
  | Found multiplier for basic radial grid :   1
  | Found angular grid specification: user-specified.
  | Specified grid contains     4 separate shells.
  | Check grid settings after all constraints further below.
  | Found free-atom valence shell :  3 s   2.000
  | Found free-atom valence shell :  3 p   1.000
  | Found free-ion valence shell :  3 s   1.000
  | Found free-ion valence shell :  2 p   6.000
  | Found ionic basis function :  3 d , default cutoff radius.
  | Found ionic basis function :  3 p , default cutoff radius.
  | Found ionic basis function :  3 s , default cutoff radius.
  Species Al                  : Missing cutoff potential type.
  Defaulting to exp(1/x)/(1-x)^2 type cutoff potential.
  Species Al: No 'logarithmic' tag. Using default grid for free atom:
  | Default logarithmic grid data [bohr] : 0.1000E-03 0.1000E+03 0.1012E+01
  | Will include ionic basis functions of  2.0-fold positive Al                   ion.
  Species Al: On-site basis accuracy parameter (for Gram-Schmidt orthonormalisation) not specified.
  Using default value basis_acc =  0.1000000E-03.
  Species Al                  : Using default innermost maximum threshold i_radial=  2 for radial functions.
  Species Al                  : Default cutoff onset for free atom density etc. : 0.35000000E+01 AA.
  Species Al                  : Basic radial grid will be enhanced according to radial_multiplier =   1, to contain    41 grid points.
 
  Reading configuration options for species F                   .
  | Found nuclear charge :   9.0000
  | Found atomic mass :    18.9984032000000      amu
  | Found l_max for Hartree potential  :   4
  | Found cutoff potl. onset [A], width [A], scale factor :    3.50000    1.50000    1.00000
  | Threshold for basis-dependent cutoff potential is   0.100000E-03
  | Found data for basic radial integration grid :    37 points, outermost radius =    5.000 A
  | Found multiplier for basic radial grid :   1
  | Found angular grid specification: user-specified.
  | Specified grid contains     4 separate shells.
  | Check grid settings after all constraints further below.
  | Found free-atom valence shell :  2 s   2.000
  | Found free-atom valence shell :  2 p   5.000
  | Found free-ion valence shell :  2 s   1.000
  | Found free-ion valence shell :  2 p   4.000
  | Found hydrogenic basis function :  2 p   1.700
  | Found hydrogenic basis function :  3 d   7.400
  | Found hydrogenic basis function :  3 s   6.800
  Species F                   : Missing cutoff potential type.
  Defaulting to exp(1/x)/(1-x)^2 type cutoff potential.
  Species F : No 'logarithmic' tag. Using default grid for free atom:
  | Default logarithmic grid data [bohr] : 0.1000E-03 0.1000E+03 0.1012E+01
  Species F : On-site basis accuracy parameter (for Gram-Schmidt orthonormalisation) not specified.
  Using default value basis_acc =  0.1000000E-03.
  Species F                   : Using default innermost maximum threshold i_radial=  2 for radial functions.
  Species F                   : Default cutoff onset for free atom density etc. : 0.35000000E+01 AA.
  Species F                   : Basic radial grid will be enhanced according to radial_multiplier =   1, to contain    37 grid points.
 
  Finished reading input file 'control.in'.
 
------------------------------------------------------------


------------------------------------------------------------
          Reading geometry description geometry.in.
------------------------------------------------------------
  | The smallest distance between any two atoms is         1.80600191 AA.
  | The first atom of this pair is atom number                      1 .
  | The second atom of this pair is atom number                     5 .
  Input structure read successfully.
  The structure contains       12 atoms,  and a total of        120.000 electrons.

  Input geometry:
  | No unit cell requested.
  | Atomic structure:
  |       Atom                x [A]            y [A]            z [A]
  |    1: Species Al            0.27552900       -2.32804100       -1.82714100
  |    2: Species Al            2.03470100       -0.54094700       -0.80745000
  |    3: Species Al           -0.33518100        0.30911000       -1.80204500
  |    4: Species F             3.62511700       -0.18002300       -0.03159300
  |    5: Species F            -0.16683200       -4.03215700       -2.22956900
  |    6: Species F             2.10102600       -1.81179300       -2.28793300
  |    7: Species F             1.52948500        0.65621400       -2.26444600
  |    8: Species F            -1.48323600        1.65230200       -2.17547400
  |    9: Species F            -1.14259300       -1.27495200       -0.99575000
  |   10: Species F            -0.11685600       -1.01625800       -3.21873600
  |   11: Species F             0.50374800        0.39752000       -0.04146000
  |   12: Species F             1.07528800       -2.07048800       -0.06494600

 
  Finished reading input file 'control.in'.
 

------------------------------------------------------------
          Reading geometry description geometry.in.
------------------------------------------------------------
 
  Consistency checks for stacksize environment parameter are next.
 
  | Maximum stacksize for task 0: unlimited
  | Maximum stacksize for task 1: unlimited
  | Maximum stacksize for task 2: unlimited
  | Maximum stacksize for task 3: unlimited
  | Maximum stacksize for task 4: unlimited
  | Maximum stacksize for task 5: unlimited
  | Maximum stacksize for task 6: unlimited
  | Maximum stacksize for task 7: unlimited
  | Maximum stacksize for task 8: unlimited
  | Maximum stacksize for task 9: unlimited
  | Maximum stacksize for task 10: unlimited
  | Maximum stacksize for task 11: unlimited
  | Maximum stacksize for task 12: unlimited
  | Maximum stacksize for task 13: unlimited
  | Maximum stacksize for task 14: unlimited
  | Maximum stacksize for task 15: unlimited
  | Maximum stacksize for task 16: unlimited
  | Maximum stacksize for task 17: unlimited
  | Maximum stacksize for task 18: unlimited
  | Maximum stacksize for task 19: unlimited
  | Maximum stacksize for task 20: unlimited
  | Maximum stacksize for task 21: unlimited
  | Maximum stacksize for task 22: unlimited
  | Maximum stacksize for task 23: unlimited
  | Current stacksize for task 0: unlimited
  | Current stacksize for task 1: unlimited
  | Current stacksize for task 2: unlimited
  | Current stacksize for task 3: unlimited
  | Current stacksize for task 4: unlimited
  | Current stacksize for task 5: unlimited
  | Current stacksize for task 6: unlimited
  | Current stacksize for task 7: unlimited
  | Current stacksize for task 8: unlimited
  | Current stacksize for task 9: unlimited
  | Current stacksize for task 10: unlimited
  | Current stacksize for task 11: unlimited
  | Current stacksize for task 12: unlimited
  | Current stacksize for task 13: unlimited
  | Current stacksize for task 14: unlimited
  | Current stacksize for task 15: unlimited
  | Current stacksize for task 16: unlimited
  | Current stacksize for task 17: unlimited
  | Current stacksize for task 18: unlimited
  | Current stacksize for task 19: unlimited
  | Current stacksize for task 20: unlimited
  | Current stacksize for task 21: unlimited
  | Current stacksize for task 22: unlimited
  | Current stacksize for task 23: unlimited
 
  Consistency checks for the contents of control.in are next.
 
  MPI_IN_PLACE appears to work with this MPI implementation.
  | Keeping use_mpi_in_place .true. (see manual).
  Target number of points in a grid batch is not set. Defaulting to  100
  Method for grid partitioning is not set. Defaulting to parallel hash+maxmin partitioning.
  Batch size limit is not set. Defaulting to    200
  By default, will store active basis functions for each batch.
  If in need of memory, prune_basis_once .false. can be used to disable this option.
  communication_type for Hartree potential was not specified.
  Defaulting to calc_hartree .
  Pulay mixer: Number of initial linear mixing iterations not set.
  Defaulting to    0 iterations.
  Work space size for distributed Hartree potential not set.
  Defaulting to   0.200000E+03 MB.
  Algorithm-dependent basis array size parameters:
  | n_max_pulay                         :       10
  Presetting      1001 iterations before the initial mixing cycle
  is restarted anyway using the sc_init_iter criterion / keyword.
  Presetting a factor      1.000 between actual scf density residual
  and density convergence criterion sc_accuracy_rho below which sc_init_iter
  takes no effect.
  No maximum number of relaxation steps, defaulting to     1000
  Default initial Hessian is Lindh matrix (thres = 15.00) plus  0.200000E+01 eV/A^2 times unity.
  No maximum energy tolerance for TRM/BFGS moves, defaulting to   0.100000E-02
  Maximum energy tolerance by which TRM/BFGS trajectory may increase over multiple steps:   0.300000E-02
  No harmonic length scale. Defaulting to   0.250000E-01 A.
  No trust radius initializer. Defaulting to   0.200000E+00 A.
  Forces evaluation will include force correction term due to incomplete self-consistency (default).
  Handling of forces: Unphysical translation and rotation will be removed from forces.
  No accuracy limit for integral partition fn. given. Defaulting to  0.1000E-14.
  No threshold value for u(r) in integrations given. Defaulting to  0.1000E-05.
  No accuracy for occupation numbers given. Defaulting to  0.1000E-12.
  No threshold value for occupation numbers given. Defaulting to  0.0000E+00.
  No accuracy for fermi level given. Defaulting to  0.1000E-19.
  Maximum # of iterations to find E_F not set. Defaulting to  200.
  Preferred method for the eigenvalue solver ('KS_method') not specified in 'control.in'.
  Calling BLACS routine to test compilation state
  Since ScaLAPACK support is enabled, defaulting to ELPA (via ELSI).
  Will not use alltoall communication since running on < 1024 CPUs.
  Threshold for basis singularities not set.
  Default threshold for basis singularities:  0.1000E-04
  partition_type (choice of integration weights) for integrals was not specified.
  | Using a version of the partition function of Stratmann and coworkers ('stratmann_sparse').
  | At each grid point, the set of atoms used to build the partition table is smoothly restricted to
  | only those atoms whose free-atom density would be non-zero at that grid point.
  Partitioning for Hartree potential was not defined. Using partition_type for integrals.
  | Adjusted default value of keyword multip_moments_threshold to:       0.10000000E-11
  | This value may affect high angular momentum components of the Hartree potential in periodic systems.
  No q(lm)/r^(l+1) cutoff set for long-range Hartree potential.
  | Using default value of  0.100000E-09 .
  | Verify using the multipole_threshold keyword.
  Defaulting to new monopole extrapolation.
  Density update method: automatic selection selected.
  Geometry relaxation: A file "geometry.in.next_step" is written out by default after each step.
  | This file contains the geometry of the current relaxation step as well as
  | the current Hessian matrix needed to restart the relaxation algorithm.
  | If you do not want part or all of this information, use the keywords
  | "write_restart_geometry" or "hessian_to_restart_geometry" to switch the output off.
  Charge integration errors on the 3D integration grid will be compensated
  by explicit normalization and distribution of residual charges.
  Use the "compensate_multipole_errors" flag to change this behaviour.
  Set 'collect_eigenvectors' to be '.true.' for use_density_matrix .false.
 
  Consistency checks for the contents of geometry.in are next.
 
  Number of empty states per atom not set in control.in - providing a guess from actual geometry.
  | Total number of empty states used during s.c.f. cycle:       36
  If you use a very high smearing, use empty_states (per atom!) in control.in to increase this value.

  Structure-dependent array size parameters: 
  | Maximum number of distinct radial functions  :       14
  | Maximum number of basis functions            :      180
  | Number of Kohn-Sham states (occupied + empty):       96
------------------------------------------------------------

------------------------------------------------------------
          Preparing all fixed parts of the calculation.
------------------------------------------------------------
  Determining machine precision:
    2.225073858507201E-308
  Setting up grids for atomic and cluster calculations.

  Creating wave function, potential, and density for free atoms.

  Species: Al

  List of occupied orbitals and eigenvalues:
    n    l              occ      energy [Ha]    energy [eV]
    1    0           2.0000       -55.621123     -1513.5278
    2    0           2.0000        -3.957030      -107.6763
    3    0           2.0000        -0.272233        -7.4078
    2    1           6.0000        -2.540949       -69.1427
    3    1           1.0000        -0.083300        -2.2667


  Species: F

  List of occupied orbitals and eigenvalues:
    n    l              occ      energy [Ha]    energy [eV]
    1    0           2.0000       -24.399611      -663.9472
    2    0           2.0000        -1.098702       -29.8972
    2    1           5.0000        -0.408210       -11.1080


  Adding cutoff potential to free-atom effective potential.
  Creating fixed part of basis set: Ionic, confined, hydrogenic.
 
  Al                   ion:

  List of free ionic orbitals and eigenvalues:
    n    l      energy [Ha]    energy [eV]
    1    0       -56.418846     -1535.2349
    2    0        -4.732717      -128.7838
    3    0        -0.872690       -23.7471
    2    1        -3.317230       -90.2664


  List of ionic basis orbitals and eigenvalues:
    n    l      energy [Ha]    energy [eV]    outer radius [A]
    3    2        -0.346815        -9.4373       4.594041
    3    1        -0.631870       -17.1940       4.538221
    3    0        -0.872657       -23.7462       4.538221

 
  F                    hydrogenic:
 
  List of hydrogenic basis orbitals: 
    n    l      effective z      eigenvalue [eV]  inner max. [A]     outer max. [A]     outer radius [A]   
    2    1         1.700000        -9.7616           1.243167           1.243167           4.598524
    3    2         7.400000       -82.7828           0.642437           0.642437           3.305741
    3    0         6.800000       -69.9026           0.057798           1.022307           3.781556
 
  Creating atomic-like basis functions for current effective potential.

  Species Al                  :

  List of atomic basis orbitals and eigenvalues:
    n    l      energy [Ha]    energy [eV]    outer radius [A]
    1    0       -55.621123     -1513.5278       0.850197
    2    0        -3.957030      -107.6763       3.144911
    3    0        -0.272233        -7.4078       4.594041
    2    1        -2.540949       -69.1427       3.731966
    3    1        -0.083300        -2.2667       4.594041


  Species F                   :

  List of atomic basis orbitals and eigenvalues:
    n    l      energy [Ha]    energy [eV]    outer radius [A]
    1    0       -24.399611      -663.9472       1.258458
    2    0        -1.098702       -29.8972       4.325857
    2    1        -0.408210       -11.1080       4.487453

  Assembling full basis from fixed parts.
  | Species Al :   atomic orbital   1 s accepted.
  | Species Al :   atomic orbital   2 s accepted.
  | Species Al :    ionic orbital   3 s accepted.
  | Species Al :   atomic orbital   3 s accepted.
  | Species Al :   atomic orbital   2 p accepted.
  | Species Al :    ionic orbital   3 p accepted.
  | Species Al :   atomic orbital   3 p accepted.
  | Species Al :    ionic orbital   3 d accepted.
  | Species F :   atomic orbital   1 s accepted.
  | Species F :    hydro orbital   3 s accepted.
  | Species F :   atomic orbital   2 s accepted.
  | Species F :   atomic orbital   2 p accepted.
  | Species F :    hydro orbital   2 p accepted.
  | Species F :    hydro orbital   3 d accepted.
 
  Basis size parameters after reduction:
  | Total number of radial functions:       14
  | Total number of basis functions :      180
 
  Per-task memory consumption for arrays in subroutine allocate_ext:
  |           4.807768MB.
  Testing on-site integration grid accuracy.
  |  Species  Function  <phi|h_atom|phi> (log., in eV)  <phi|h_atom|phi> (rad., in eV)
           1        1              -1513.5277717935              -1513.5271881332
           1        2               -107.6762691836               -107.6762662489
           1        3                 -6.9467474784                 -6.9471269649
           1        4                  5.5771951849                  5.4862107220 ***
           1        5                -69.1427313144                -69.1427312731
           1        6                 -1.5197375330                 -1.5230432022
           1        7                  6.8210948310                  6.5529872240 ***
           1        8                  4.3216540965                  4.2851170187 ***
           2        9               -663.9471986398               -663.9470363334
           2       10                 16.8514011578                 16.8512525338
           2       11                -28.4490593856                -28.4490661472
           2       12                -11.1080115307                -11.1080620173
           2       13                  7.1940182175                  7.1685154137
           2       14                 44.8544281765                 44.8543763625
 * Note: Onsite integrals marked "***" above are less accurate than
 * onsite_accuracy_threshold =    0.03000 eV. Usually, this is harmless.
 * When in doubt, tighten the "radial" and/or "radial_multiplier" flags to check.

  Preparing densities etc. for the partition functions (integrals / Hartree potential).

  Preparations completed.
  max(cpu_time)          :      0.184 s.
  Wall clock time (cpu1) :      0.192 s.
------------------------------------------------------------

------------------------------------------------------------
          Begin self-consistency loop: Initialization.

          Date     :  20211214, Time     :  141724.143
------------------------------------------------------------

  Initializing index lists of integration centers etc. from given atomic structure:
  | Number of centers in hartree potential         :        12
  | Number of centers in hartree multipole         :        12
  | Number of centers in electron density summation:        12
  | Number of centers in basis integrals           :        12
  | Number of centers in integrals                 :        12
  | Number of centers in hamiltonian               :        12

  Initializing relaxation algorithms.
  Finished initialization of distributed Hessian storage.
  | Global dimension:        36
  | BLACS block size:         2
  | Number of workers:       18

  * Using 24 tasks for Scalapack Eigenvalue solver.
  Detailed listing of tasks and assigned k-points:
  (for non-periodic systems, the "k-point" denotes an internal label only)
   Task     0 k-point     1 on node-k98k-006
   Task     1 k-point     1 on node-k98k-006
   Task     2 k-point     1 on node-k98k-006
   Task     3 k-point     1 on node-k98k-006
   Task     4 k-point     1 on node-k98k-006
   Task     5 k-point     1 on node-k98k-006
   Task     6 k-point     1 on node-k98k-006
   Task     7 k-point     1 on node-k98k-006
   Task     8 k-point     1 on node-k98k-006
   Task     9 k-point     1 on node-k98k-006
   Task    10 k-point     1 on node-k98k-006
   Task    11 k-point     1 on node-k98k-006
   Task    12 k-point     1 on node-k98k-006
   Task    13 k-point     1 on node-k98k-006
   Task    14 k-point     1 on node-k98k-006
   Task    15 k-point     1 on node-k98k-006
   Task    16 k-point     1 on node-k98k-006
   Task    17 k-point     1 on node-k98k-006
   Task    18 k-point     1 on node-k98k-006
   Task    19 k-point     1 on node-k98k-006
   Task    20 k-point     1 on node-k98k-006
   Task    21 k-point     1 on node-k98k-006
   Task    22 k-point     1 on node-k98k-006
   Task    23 k-point     1 on node-k98k-006
  Tasks:    24 split into      6 X      4 BLACS grid
  Calculating block size based on n_basis =          180  max_nprow =            6  max_npcol =            4
  ScaLAPACK block size set to:           16
  Allocating        0.012 MB for ovlp
  Allocating        0.012 MB for ham
  Allocating        0.012 MB for eigenvec
  Required Scalapack workspace - INTEGER:            1  REAL:             1
  Partitioning the integration grid into batches with parallel hashing+maxmin method.
  | Number of batches:     1049
  | Maximal batch size:     186
  | Minimal batch size:      34
  | Average batch size:      87.626
  | Standard deviation of batch sizes:      21.078

  Integration load balanced across    24 MPI tasks.
  Work distribution over tasks is as follows:
  Task     0 has       3819 integration points.
  Task     1 has       3774 integration points.
  Task     2 has       3859 integration points.
  Task     3 has       3866 integration points.
  Task     4 has       3854 integration points.
  Task     5 has       3881 integration points.
  Task     6 has       3817 integration points.
  Task     7 has       3862 integration points.
  Task     8 has       3801 integration points.
  Task     9 has       3822 integration points.
  Task    10 has       3842 integration points.
  Task    11 has       3780 integration points.
  Task    12 has       3847 integration points.
  Task    13 has       3878 integration points.
  Task    14 has       3845 integration points.
  Task    15 has       3786 integration points.
  Task    16 has       3792 integration points.
  Task    17 has       3851 integration points.
  Task    18 has       3788 integration points.
  Task    19 has       3848 integration points.
  Task    20 has       3794 integration points.
  Task    21 has       3887 integration points.
  Task    22 has       3815 integration points.
  Task    23 has       3812 integration points.
  Initializing partition tables, free-atom densities, potentials, etc. across the integration grid (initialize_grid_storage).
  | initialize_grid_storage: Actual outermost partition radius vs. multipole_radius_free
  | (-- VB: in principle, multipole_radius_free should be larger, hence this output)
  | Species        1: Confinement radius =              4.999999999999999 AA, multipole_radius_free =              5.004487022111096 AA.
  | Species        1: outer_partition_radius set to              5.004487022111096 AA .
  | Species        2: Confinement radius =              4.999999999999999 AA, multipole_radius_free =              5.009370088163274 AA.
  | Species        2: outer_partition_radius set to              5.009370088163274 AA .
  | The sparse table of interatomic distances needs          1.64 kbyte instead of         1.15 kbyte of memory.
  | Using the partition_type stratmann_smoother will reduce your memory usage.
  | Net number of integration points:    91920
  | of which are non-zero points    :    84651
  Renormalizing the initial density to the exact electron count on the 3D integration grid.
  | Initial density: Formal number of electrons (from input files) :     120.0000000000
  | Integrated number of electrons on 3D grid     :     119.9999454798
  | Charge integration error                      :      -0.0000545202
  | Normalization factor for density and gradient :       1.0000004543
  Renormalizing the free-atom superposition density to the exact electron count on the 3D integration grid.
  | Formal number of electrons (from input files) :     120.0000000000
  | Integrated number of electrons on 3D grid     :     119.9999454798
  | Charge integration error                      :      -0.0000545202
  | Normalization factor for density and gradient :       1.0000004543
  Obtaining max. number of non-zero basis functions in each batch (get_n_compute_maxes).
  | Maximal number of non-zero basis functions:      164 in task     0
  | Maximal number of non-zero basis functions:      171 in task     1
  | Maximal number of non-zero basis functions:      171 in task     2
  | Maximal number of non-zero basis functions:      166 in task     3
  | Maximal number of non-zero basis functions:      166 in task     4
  | Maximal number of non-zero basis functions:      171 in task     5
  | Maximal number of non-zero basis functions:      166 in task     6
  | Maximal number of non-zero basis functions:      166 in task     7
  | Maximal number of non-zero basis functions:      170 in task     8
  | Maximal number of non-zero basis functions:      166 in task     9
  | Maximal number of non-zero basis functions:      171 in task    10
  | Maximal number of non-zero basis functions:      166 in task    11
  | Maximal number of non-zero basis functions:      171 in task    12
  | Maximal number of non-zero basis functions:      167 in task    13
  | Maximal number of non-zero basis functions:      171 in task    14
  | Maximal number of non-zero basis functions:      171 in task    15
  | Maximal number of non-zero basis functions:      166 in task    16
  | Maximal number of non-zero basis functions:      170 in task    17
  | Maximal number of non-zero basis functions:      166 in task    18
  | Maximal number of non-zero basis functions:      172 in task    19
  | Maximal number of non-zero basis functions:      171 in task    20
  | Maximal number of non-zero basis functions:      166 in task    21
  | Maximal number of non-zero basis functions:      166 in task    22
  | Maximal number of non-zero basis functions:      170 in task    23
  Selecting the method for density update.
  Loop over occupied states selected for charge density update.
  Allocating        0.132 MB for KS_eigenvector
  Integrating Hamiltonian matrix: batch-based integration.
  Time summed over all CPUs for integration: real work        0.788 s, elapsed        0.847 s
  Integrating overlap matrix.
  Time summed over all CPUs for integration: real work        0.300 s, elapsed        0.317 s
  Deallocating overlap matrix.

  Updating Kohn-Sham eigenvalues and eigenvectors using ELSI and the ELPA eigensolver.
  Overlap matrix is not singular
  | Lowest and highest eigenvalues :  0.2764E-02,  0.6087E+01
  Finished singularity check of overlap matrix
  | Time :     0.004 s
  Starting ELPA eigensolver
  Finished Cholesky decomposition
  | Time :     0.002 s
  Finished transformation to standard eigenproblem
  | Time :     0.001 s
  Finished solving standard eigenproblem
  | Time :     0.003 s
  Finished back-transformation of eigenvectors
  | Time :     0.001 s

  Obtaining occupation numbers and chemical potential using ELSI.
  | Chemical potential (Fermi level):    -7.17849931 eV
  Writing Kohn-Sham eigenvalues.

  State    Occupation    Eigenvalue [Ha]    Eigenvalue [eV]
      1       2.00000         -55.486356        -1509.86056
      2       2.00000         -55.486356        -1509.86056
      3       2.00000         -55.486355        -1509.86055
      4       2.00000         -24.353570         -662.69437
      5       2.00000         -24.353570         -662.69437
      6       2.00000         -24.353570         -662.69436
      7       2.00000         -24.353570         -662.69436
      8       2.00000         -24.353570         -662.69436
      9       2.00000         -24.353570         -662.69435
     10       2.00000         -24.341750         -662.37271
     11       2.00000         -24.341750         -662.37271
     12       2.00000         -24.341750         -662.37271
     13       2.00000          -3.952070         -107.54130
     14       2.00000          -3.952007         -107.53959
     15       2.00000          -3.952007         -107.53959
     16       2.00000          -2.545713          -69.27237
     17       2.00000          -2.545163          -69.25742
     18       2.00000          -2.545163          -69.25741
     19       2.00000          -2.543502          -69.21222
     20       2.00000          -2.543502          -69.21222
     21       2.00000          -2.543257          -69.20554
     22       2.00000          -2.542940          -69.19691
     23       2.00000          -2.542849          -69.19443
     24       2.00000          -2.542848          -69.19441
     25       2.00000          -1.192301          -32.44416
     26       2.00000          -1.174799          -31.96790
     27       2.00000          -1.174799          -31.96790
     28       2.00000          -1.173689          -31.93770
     29       2.00000          -1.159454          -31.55036
     30       2.00000          -1.159454          -31.55035
     31       2.00000          -1.150706          -31.31230
     32       2.00000          -1.150706          -31.31229
     33       2.00000          -1.150465          -31.30573
     34       2.00000          -0.572066          -15.56671
     35       2.00000          -0.544735          -14.82298
     36       2.00000          -0.544734          -14.82296
     37       2.00000          -0.521049          -14.17847
     38       2.00000          -0.521048          -14.17844
     39       2.00000          -0.513183          -13.96441
     40       2.00000          -0.513182          -13.96439
     41       2.00000          -0.512019          -13.93276
     42       2.00000          -0.509220          -13.85658
     43       2.00000          -0.493323          -13.42401
     44       2.00000          -0.491814          -13.38294
     45       2.00000          -0.489296          -13.31442
     46       2.00000          -0.489295          -13.31440
     47       2.00000          -0.476133          -12.95623
     48       2.00000          -0.464660          -12.64405
     49       2.00000          -0.464660          -12.64404
     50       2.00000          -0.463183          -12.60386
     51       2.00000          -0.459230          -12.49628
     52       2.00000          -0.459229          -12.49626
     53       2.00000          -0.453884          -12.35081
     54       2.00000          -0.452624          -12.31653
     55       2.00000          -0.452624          -12.31653
     56       2.00000          -0.451568          -12.28778
     57       2.00000          -0.451567          -12.28777
     58       2.00000          -0.451402          -12.28329
     59       2.00000          -0.440194          -11.97827
     60       2.00000          -0.440193          -11.97827
     61       0.00000          -0.152630           -4.15328
     62       0.00000          -0.072321           -1.96797
     63       0.00000          -0.072314           -1.96776
     64       0.00000          -0.064088           -1.74391
     65       0.00000          -0.007111           -0.19350
     66       0.00000           0.023228            0.63205
     67       0.00000           0.023263            0.63302
     68       0.00000           0.043704            1.18924
     69       0.00000           0.043732            1.19002
     70       0.00000           0.063086            1.71666
     71       0.00000           0.112935            3.07311
     72       0.00000           0.112982            3.07440
     73       0.00000           0.158613            4.31607
     74       0.00000           0.164812            4.48477
     75       0.00000           0.184347            5.01633
     76       0.00000           0.197773            5.38167
     77       0.00000           0.197790            5.38213
     78       0.00000           0.203746            5.54421
     79       0.00000           0.222420            6.05235
     80       0.00000           0.222450            6.05316
     81       0.00000           0.227980            6.20364
     82       0.00000           0.227982            6.20372
     83       0.00000           0.248200            6.75387
     84       0.00000           0.250331            6.81184
     85       0.00000           0.250383            6.81328
     86       0.00000           0.269039            7.32092
     87       0.00000           0.269112            7.32292
     88       0.00000           0.275430            7.49482
     89       0.00000           0.275442            7.49516
     90       0.00000           0.275702            7.50224
     91       0.00000           0.331778            9.02813
     92       0.00000           0.367077            9.98866
     93       0.00000           0.368033           10.01469
     94       0.00000           0.388801           10.57982
     95       0.00000           0.388867           10.58162
     96       0.00000           0.391008           10.63987

  Highest occupied state (VBM) at    -11.97827030 eV
  | Occupation number:      2.00000000

  Lowest unoccupied state (CBM) at    -4.15328372 eV
  | Occupation number:      0.00000000

  Overall HOMO-LUMO gap:      7.82498658 eV.
  Calculating total energy contributions from superposition of free atom densities.

  Total energy components:
  | Sum of eigenvalues            :        -887.87849189 Ha      -24160.40303219 eV
  | XC energy correction          :        -144.46469411 Ha       -3931.08433818 eV
  | XC potential correction       :         188.10816273 Ha        5118.68354369 eV
  | Free-atom electrostatic energy:        -781.09796047 Ha      -21254.75693457 eV
  | Hartree energy correction     :           0.00000000 Ha           0.00000000 eV
  | Entropy correction            :           0.00000000 Ha           0.00000000 eV
  | ---------------------------
  | Total energy                  :       -1625.33298375 Ha      -44227.56076125 eV
  | Total energy, T -> 0          :       -1625.33298375 Ha      -44227.56076125 eV  <-- do not rely on this value for anything but (periodic) metals
  | Electronic free energy        :       -1625.33298375 Ha      -44227.56076125 eV

  Derived energy quantities:
  | Kinetic energy                :        1627.92033424 Ha       44297.96615033 eV
  | Electrostatic energy          :       -3108.78862387 Ha      -84594.44257341 eV
  | Energy correction for multipole
  | error in Hartree potential    :           0.00000000 Ha           0.00000000 eV
  | Sum of eigenvalues per atom                           :       -2013.36691935 eV
  | Total energy (T->0) per atom                          :       -3685.63006344 eV  <-- do not rely on this value for anything but (periodic) metals
  | Electronic free energy per atom                       :       -3685.63006344 eV
  Initialize hartree_potential_storage
  Max. number of atoms included in rho_multipole:           12

  End scf initialization - timings             :  max(cpu_time)    wall_clock(cpu1)
  | Time for scf. initialization                :        0.133 s           0.133 s
  | Boundary condition initialization           :        0.000 s           0.000 s
  | Relaxation initialization                   :        0.003 s           0.003 s
  | Integration                                 :        0.050 s           0.050 s
  | Solution of K.-S. eqns.                     :        0.012 s           0.012 s
  | Grid partitioning                           :        0.044 s           0.044 s
  | Preloading free-atom quantities on grid     :        0.017 s           0.017 s
  | Free-atom superposition energy              :        0.005 s           0.005 s
  | Total energy evaluation                     :        0.000 s           0.000 s

  Partial memory accounting:
  | Current value for overall tracked memory usage:
  |   Minimum:        0.284 MB (on task 23)
  |   Maximum:        0.303 MB (on task  0)
  |   Average:        0.299 MB
  | Peak value for overall tracked memory usage:
  |   Minimum:        1.335 MB (on task  0 after allocating wave)
  |   Maximum:        1.383 MB (on task  1 after allocating wave)
  |   Average:        1.360 MB
  | Largest tracked array allocation so far:
  |   Minimum:        0.233 MB (H_times_psi on task  0)
  |   Maximum:        0.618 MB (all_coords on task 12)
  |   Average:        0.275 MB
  Note:  These values currently only include a subset of arrays which are explicitly tracked.
  The "true" memory usage will be greater.
------------------------------------------------------------
  Evaluating new KS density.
  Integration grid: deviation in total charge (<rho> - N_e) =   1.421085E-14

  Time for density update prior                :  max(cpu_time)    wall_clock(cpu1)
  | self-consistency iterative process          :        0.030 s           0.031 s

------------------------------------------------------------
          Begin self-consistency iteration #    1

  Date     :  20211214, Time     :  141724.307
------------------------------------------------------------
  Pulay mixing of updated and previous charge densities.
  Renormalizing the density to the exact electron count on the 3D integration grid.
  | Formal number of electrons (from input files) :     120.0000000000
  | Integrated number of electrons on 3D grid     :     120.0000000000
  | Charge integration error                      :      -0.0000000000
  | Normalization factor for density and gradient :       1.0000000000

  Evaluating partitioned Hartree potential by multipole expansion.
  | Original multipole sum: apparent total charge =  -0.577555E-13
  | Sum of charges compensated after spline to logarithmic grids =   0.380541E-04
  | Analytical far-field extrapolation by fixed multipoles:
  | Hartree multipole sum: apparent total charge =  -0.575587E-13
  Summing up the Hartree potential.
  Time summed over all CPUs for potential: real work        0.381 s, elapsed        0.397 s
  | RMS charge density error from multipole expansion :   0.116541E-01

  Integrating Hamiltonian matrix: batch-based integration.
  Time summed over all CPUs for integration: real work        0.734 s, elapsed        0.778 s

  Updating Kohn-Sham eigenvalues and eigenvectors using ELSI and the ELPA eigensolver.
  Starting ELPA eigensolver
  Finished transformation to standard eigenproblem
  | Time :     0.000 s
  Finished solving standard eigenproblem
  | Time :     0.003 s
  Finished back-transformation of eigenvectors
  | Time :     0.000 s

  Obtaining occupation numbers and chemical potential using ELSI.
  | Chemical potential (Fermi level):    -6.88016811 eV
  Writing Kohn-Sham eigenvalues.

  State    Occupation    Eigenvalue [Ha]    Eigenvalue [eV]
      1       2.00000         -55.652863        -1514.39145
      2       2.00000         -55.652860        -1514.39137
      3       2.00000         -55.652859        -1514.39133
      4       2.00000         -24.195609         -658.39601
      5       2.00000         -24.195607         -658.39595
      6       2.00000         -24.195605         -658.39592
      7       2.00000         -24.195605         -658.39592
      8       2.00000         -24.195604         -658.39587
      9       2.00000         -24.195599         -658.39576
     10       2.00000         -24.071989         -655.03215
     11       2.00000         -24.071980         -655.03189
     12       2.00000         -24.071979         -655.03188
     13       2.00000          -4.091452         -111.33408
     14       2.00000          -4.091390         -111.33239
     15       2.00000          -4.091388         -111.33234
     16       2.00000          -2.685340          -73.07181
     17       2.00000          -2.684853          -73.05857
     18       2.00000          -2.684851          -73.05851
     19       2.00000          -2.684045          -73.03657
     20       2.00000          -2.684043          -73.03651
     21       2.00000          -2.683844          -73.03110
     22       2.00000          -2.683311          -73.01660
     23       2.00000          -2.683238          -73.01461
     24       2.00000          -2.683235          -73.01455
     25       2.00000          -1.146606          -31.20075
     26       2.00000          -1.123686          -30.57706
     27       2.00000          -1.123684          -30.57700
     28       2.00000          -1.120984          -30.50353
     29       2.00000          -1.103160          -30.01852
     30       2.00000          -1.103158          -30.01846
     31       2.00000          -1.017595          -27.69016
     32       2.00000          -1.017592          -27.69008
     33       2.00000          -1.017252          -27.68084
     34       2.00000          -0.561292          -15.27354
     35       2.00000          -0.515893          -14.03815
     36       2.00000          -0.515891          -14.03811
     37       2.00000          -0.481034          -13.08959
     38       2.00000          -0.481030          -13.08950
     39       2.00000          -0.473543          -12.88576
     40       2.00000          -0.473541          -12.88569
     41       2.00000          -0.465330          -12.66228
     42       2.00000          -0.463875          -12.62269
     43       2.00000          -0.447332          -12.17253
     44       2.00000          -0.424631          -11.55481
     45       2.00000          -0.407830          -11.09763
     46       2.00000          -0.407827          -11.09755
     47       2.00000          -0.405235          -11.02699
     48       2.00000          -0.405232          -11.02691
     49       2.00000          -0.404816          -11.01560
     50       2.00000          -0.384972          -10.47562
     51       2.00000          -0.377536          -10.27329
     52       2.00000          -0.377535          -10.27324
     53       2.00000          -0.374188          -10.18216
     54       2.00000          -0.374187          -10.18213
     55       2.00000          -0.328479           -8.93838
     56       2.00000          -0.326822           -8.89327
     57       2.00000          -0.326818           -8.89317
     58       2.00000          -0.325476           -8.85666
     59       2.00000          -0.325346           -8.85312
     60       2.00000          -0.325343           -8.85304
     61       0.00000          -0.167593           -4.56042
     62       0.00000          -0.087878           -2.39129
     63       0.00000          -0.069958           -1.90364
     64       0.00000          -0.069953           -1.90350
     65       0.00000          -0.014864           -0.40446
     66       0.00000           0.021395            0.58218
     67       0.00000           0.021424            0.58298
     68       0.00000           0.045287            1.23231
     69       0.00000           0.045309            1.23292
     70       0.00000           0.060101            1.63543
     71       0.00000           0.090799            2.47076
     72       0.00000           0.090841            2.47192
     73       0.00000           0.165544            4.50469
     74       0.00000           0.169403            4.60968
     75       0.00000           0.176680            4.80772
     76       0.00000           0.176709            4.80850
     77       0.00000           0.184944            5.03259
     78       0.00000           0.202194            5.50197
     79       0.00000           0.219340            5.96855
     80       0.00000           0.219351            5.96885
     81       0.00000           0.222215            6.04679
     82       0.00000           0.222248            6.04767
     83       0.00000           0.237134            6.45273
     84       0.00000           0.237223            6.45516
     85       0.00000           0.247782            6.74250
     86       0.00000           0.247879            6.74512
     87       0.00000           0.250841            6.82572
     88       0.00000           0.261398            7.11300
     89       0.00000           0.277546            7.55242
     90       0.00000           0.277567            7.55300
     91       0.00000           0.337645            9.18780
     92       0.00000           0.358673            9.75999
     93       0.00000           0.359870            9.79257
     94       0.00000           0.396391           10.78636
     95       0.00000           0.396463           10.78830
     96       0.00000           0.404076           10.99546

  Highest occupied state (VBM) at     -8.85304425 eV
  | Occupation number:      2.00000000

  Lowest unoccupied state (CBM) at    -4.56042444 eV
  | Occupation number:      0.00000000

  Overall HOMO-LUMO gap:      4.29261981 eV.

  Total energy components:
  | Sum of eigenvalues            :        -883.46779829 Ha      -24040.38195274 eV
  | XC energy correction          :        -145.69904612 Ha       -3964.67276532 eV
  | XC potential correction       :         189.73039930 Ha        5162.82684673 eV
  | Free-atom electrostatic energy:        -781.09796047 Ha      -21254.75693457 eV
  | Hartree energy correction     :          -4.61147923 Ha        -125.48473434 eV
  | Entropy correction            :           0.00000000 Ha           0.00000000 eV
  | ---------------------------
  | Total energy                  :       -1625.14588481 Ha      -44222.46954024 eV
  | Total energy, T -> 0          :       -1625.14588481 Ha      -44222.46954024 eV  <-- do not rely on this value for anything but (periodic) metals
  | Electronic free energy        :       -1625.14588481 Ha      -44222.46954024 eV

  Derived energy quantities:
  | Kinetic energy                :        1633.76903285 Ha       44457.11733713 eV
  | Electrostatic energy          :       -3113.21587154 Ha      -84714.91411206 eV
  | Energy correction for multipole
  | error in Hartree potential    :           0.03245150 Ha           0.88305033 eV
  | Sum of eigenvalues per atom                           :       -2003.36516273 eV
  | Total energy (T->0) per atom                          :       -3685.20579502 eV  <-- do not rely on this value for anything but (periodic) metals
  | Electronic free energy per atom                       :       -3685.20579502 eV
  Evaluating new KS density.
  Integration grid: deviation in total charge (<rho> - N_e) =   1.421085E-14

  Self-consistency convergence accuracy:
  | Change of charge density      :  0.5762E+00
  | Change of sum of eigenvalues  :  0.1200E+03 eV
  | Change of total energy        :  0.5091E+01 eV


------------------------------------------------------------
  End self-consistency iteration #     1       :  max(cpu_time)    wall_clock(cpu1)
  | Time for this iteration                     :        0.087 s           0.086 s
  | Charge density update                       :        0.030 s           0.030 s
  | Density mixing                              :        0.000 s           0.000 s
  | Hartree multipole update                    :        0.001 s           0.002 s
  | Hartree multipole summation                 :        0.017 s           0.017 s
  | Integration                                 :        0.033 s           0.032 s
  | Solution of K.-S. eqns.                     :        0.004 s           0.004 s
  | Total energy evaluation                     :        0.000 s           0.000 s

  Partial memory accounting:
  | Current value for overall tracked memory usage:
  |   Minimum:        0.284 MB (on task 23)
  |   Maximum:        0.303 MB (on task  0)
  |   Average:        0.299 MB
  | Peak value for overall tracked memory usage:
  |   Minimum:        1.335 MB (on task  0 after allocating wave)
  |   Maximum:        1.383 MB (on task  1 after allocating wave)
  |   Average:        1.360 MB
  | Largest tracked array allocation so far:
  |   Minimum:        0.698 MB (gradient_basis_wave on task  0)
  |   Maximum:        0.732 MB (gradient_basis_wave on task 19)
  |   Average:        0.717 MB
  Note:  These values currently only include a subset of arrays which are explicitly tracked.
  The "true" memory usage will be greater.
------------------------------------------------------------

------------------------------------------------------------
          Begin self-consistency iteration #    2

  Date     :  20211214, Time     :  141724.398
------------------------------------------------------------
  Pulay mixing of updated and previous charge densities.
  Renormalizing the density to the exact electron count on the 3D integration grid.
  | Formal number of electrons (from input files) :     120.0000000000
  | Integrated number of electrons on 3D grid     :     120.0000000000
  | Charge integration error                      :      -0.0000000000
  | Normalization factor for density and gradient :       1.0000000000

  Evaluating partitioned Hartree potential by multipole expansion.
  | Original multipole sum: apparent total charge =  -0.830789E-13
  | Sum of charges compensated after spline to logarithmic grids =  -0.886876E-05
  | Analytical far-field extrapolation by fixed multipoles:
  | Hartree multipole sum: apparent total charge =  -0.824516E-13
  Summing up the Hartree potential.
  Time summed over all CPUs for potential: real work        0.379 s, elapsed        0.395 s
  | RMS charge density error from multipole expansion :   0.132287E-01

  Integrating Hamiltonian matrix: batch-based integration.
  Time summed over all CPUs for integration: real work        0.735 s, elapsed        0.777 s

  Updating Kohn-Sham eigenvalues and eigenvectors using ELSI and the ELPA eigensolver.
  Starting ELPA eigensolver
  Finished transformation to standard eigenproblem
  | Time :     0.001 s
  Finished solving standard eigenproblem
  | Time :     0.003 s
  Finished back-transformation of eigenvectors
  | Time :     0.000 s

  Obtaining occupation numbers and chemical potential using ELSI.
  | Chemical potential (Fermi level):    -7.00640897 eV
  Highest occupied state (VBM) at    -10.05604100 eV
  | Occupation number:      2.00000000

  Lowest unoccupied state (CBM) at    -4.65660941 eV
  | Occupation number:      0.00000000

  Overall HOMO-LUMO gap:      5.39943159 eV.

  Checking to see if s.c.f. parameters should be adjusted.

  Total energy components:
  | Sum of eigenvalues            :        -886.02542920 Ha      -24109.97863071 eV
  | XC energy correction          :        -145.25304114 Ha       -3952.53635219 eV
  | XC potential correction       :         189.14364322 Ha        5146.86040127 eV
  | Free-atom electrostatic energy:        -781.09796047 Ha      -21254.75693457 eV
  | Hartree energy correction     :          -1.86097078 Ha         -50.63959150 eV
  | Entropy correction            :           0.00000000 Ha           0.00000000 eV
  | ---------------------------
  | Total energy                  :       -1625.09375838 Ha      -44221.05110770 eV
  | Total energy, T -> 0          :       -1625.09375838 Ha      -44221.05110770 eV  <-- do not rely on this value for anything but (periodic) metals
  | Electronic free energy        :       -1625.09375838 Ha      -44221.05110770 eV

  Derived energy quantities:
  | Kinetic energy                :        1630.13872840 Ha       44358.33172689 eV
  | Electrostatic energy          :       -3109.97944564 Ha      -84626.84648240 eV
  | Energy correction for multipole
  | error in Hartree potential    :           0.03671506 Ha           0.99906761 eV
  | Sum of eigenvalues per atom                           :       -2009.16488589 eV
  | Total energy (T->0) per atom                          :       -3685.08759231 eV  <-- do not rely on this value for anything but (periodic) metals
  | Electronic free energy per atom                       :       -3685.08759231 eV
  Evaluating new KS density.
  Integration grid: deviation in total charge (<rho> - N_e) =   0.000000E+00

  Self-consistency convergence accuracy:
  | Change of charge density      :  0.4292E+00
  | Change of sum of eigenvalues  : -0.6960E+02 eV
  | Change of total energy        :  0.1418E+01 eV


------------------------------------------------------------
  End self-consistency iteration #     2       :  max(cpu_time)    wall_clock(cpu1)
  | Time for this iteration                     :        0.089 s           0.086 s
  | Charge density update                       :        0.030 s           0.029 s
  | Density mixing                              :        0.004 s           0.001 s
  | Hartree multipole update                    :        0.001 s           0.002 s
  | Hartree multipole summation                 :        0.017 s           0.016 s
  | Integration                                 :        0.033 s           0.033 s
  | Solution of K.-S. eqns.                     :        0.004 s           0.004 s
  | Total energy evaluation                     :        0.000 s           0.000 s

  Partial memory accounting:
  | Current value for overall tracked memory usage:
  |   Minimum:        0.285 MB (on task 23)
  |   Maximum:        0.304 MB (on task  0)
  |   Average:        0.300 MB
  | Peak value for overall tracked memory usage:
  |   Minimum:        1.335 MB (on task  0 after allocating wave)
  |   Maximum:        1.383 MB (on task  1 after allocating wave)
  |   Average:        1.360 MB
  | Largest tracked array allocation so far:
  |   Minimum:        0.698 MB (gradient_basis_wave on task  0)
  |   Maximum:        0.732 MB (gradient_basis_wave on task 19)
  |   Average:        0.717 MB
  Note:  These values currently only include a subset of arrays which are explicitly tracked.
  The "true" memory usage will be greater.
------------------------------------------------------------

------------------------------------------------------------
          Begin self-consistency iteration #    3

  Date     :  20211214, Time     :  141724.491
------------------------------------------------------------
  Pulay mixing of updated and previous charge densities.
  Renormalizing the density to the exact electron count on the 3D integration grid.
  | Formal number of electrons (from input files) :     120.0000000000
  | Integrated number of electrons on 3D grid     :     120.0000000000
  | Charge integration error                      :       0.0000000000
  | Normalization factor for density and gradient :       1.0000000000

  Evaluating partitioned Hartree potential by multipole expansion.
  | Original multipole sum: apparent total charge =   0.257046E-14
  | Sum of charges compensated after spline to logarithmic grids =  -0.206311E-04
  | Analytical far-field extrapolation by fixed multipoles:
  | Hartree multipole sum: apparent total charge =   0.180793E-14
  Summing up the Hartree potential.
  Time summed over all CPUs for potential: real work        0.380 s, elapsed        0.395 s
  | RMS charge density error from multipole expansion :   0.178408E-01

  Integrating Hamiltonian matrix: batch-based integration.
  Time summed over all CPUs for integration: real work        0.735 s, elapsed        0.779 s

  Updating Kohn-Sham eigenvalues and eigenvectors using ELSI and the ELPA eigensolver.
  Starting ELPA eigensolver
  Finished transformation to standard eigenproblem
  | Time :     0.000 s
  Finished solving standard eigenproblem
  | Time :     0.003 s
  Finished back-transformation of eigenvectors
  | Time :     0.000 s

  Obtaining occupation numbers and chemical potential using ELSI.
  | Chemical potential (Fermi level):    -7.10339748 eV
  Highest occupied state (VBM) at     -9.63541043 eV
  | Occupation number:      2.00000000

  Lowest unoccupied state (CBM) at    -4.85464808 eV
  | Occupation number:      0.00000000

  Overall HOMO-LUMO gap:      4.78076235 eV.

  Total energy components:
  | Sum of eigenvalues            :        -886.82172599 Ha      -24131.64696892 eV
  | XC energy correction          :        -145.22045659 Ha       -3951.64968147 eV
  | XC potential correction       :         189.09960984 Ha        5145.66219213 eV
  | Free-atom electrostatic energy:        -781.09796047 Ha      -21254.75693457 eV
  | Hartree energy correction     :          -1.05294206 Ha         -28.65201129 eV
  | Entropy correction            :           0.00000000 Ha           0.00000000 eV
  | ---------------------------
  | Total energy                  :       -1625.09347527 Ha      -44221.04340414 eV
  | Total energy, T -> 0          :       -1625.09347527 Ha      -44221.04340414 eV  <-- do not rely on this value for anything but (periodic) metals
  | Electronic free energy        :       -1625.09347527 Ha      -44221.04340414 eV

  Derived energy quantities:
  | Kinetic energy                :        1628.50112422 Ha       44313.77024996 eV
  | Electrostatic energy          :       -3108.37414291 Ha      -84583.16397263 eV
  | Energy correction for multipole
  | error in Hartree potential    :           0.05020315 Ha           1.36609732 eV
  | Sum of eigenvalues per atom                           :       -2010.97058074 eV
  | Total energy (T->0) per atom                          :       -3685.08695034 eV  <-- do not rely on this value for anything but (periodic) metals
  | Electronic free energy per atom                       :       -3685.08695034 eV
  Evaluating new KS density.
  Integration grid: deviation in total charge (<rho> - N_e) =   5.684342E-14

  Self-consistency convergence accuracy:
  | Change of charge density      :  0.1180E+00
  | Change of sum of eigenvalues  : -0.2167E+02 eV
  | Change of total energy        :  0.7704E-02 eV


------------------------------------------------------------
  End self-consistency iteration #     3       :  max(cpu_time)    wall_clock(cpu1)
  | Time for this iteration                     :        0.089 s           0.087 s
  | Charge density update                       :        0.030 s           0.030 s
  | Density mixing                              :        0.004 s           0.002 s
  | Hartree multipole update                    :        0.001 s           0.001 s
  | Hartree multipole summation                 :        0.017 s           0.017 s
  | Integration                                 :        0.033 s           0.032 s
  | Solution of K.-S. eqns.                     :        0.004 s           0.005 s
  | Total energy evaluation                     :        0.000 s           0.000 s

  Partial memory accounting:
  | Current value for overall tracked memory usage:
  |   Minimum:        0.285 MB (on task 23)
  |   Maximum:        0.304 MB (on task  0)
  |   Average:        0.300 MB
  | Peak value for overall tracked memory usage:
  |   Minimum:        1.335 MB (on task  0 after allocating wave)
  |   Maximum:        1.383 MB (on task  1 after allocating wave)
  |   Average:        1.360 MB
  | Largest tracked array allocation so far:
  |   Minimum:        0.698 MB (gradient_basis_wave on task  0)
  |   Maximum:        0.732 MB (gradient_basis_wave on task 19)
  |   Average:        0.717 MB
  Note:  These values currently only include a subset of arrays which are explicitly tracked.
  The "true" memory usage will be greater.
------------------------------------------------------------

------------------------------------------------------------
          Begin self-consistency iteration #    4

  Date     :  20211214, Time     :  141724.582
------------------------------------------------------------
  Pulay mixing of updated and previous charge densities.
  Renormalizing the density to the exact electron count on the 3D integration grid.
  | Formal number of electrons (from input files) :     120.0000000000
  | Integrated number of electrons on 3D grid     :     120.0000000000
  | Charge integration error                      :       0.0000000000
  | Normalization factor for density and gradient :       1.0000000000

  Evaluating partitioned Hartree potential by multipole expansion.
  | Original multipole sum: apparent total charge =   0.323460E-13
  | Sum of charges compensated after spline to logarithmic grids =  -0.258192E-04
  | Analytical far-field extrapolation by fixed multipoles:
  | Hartree multipole sum: apparent total charge =   0.325305E-13
  Summing up the Hartree potential.
  Time summed over all CPUs for potential: real work        0.379 s, elapsed        0.395 s
  | RMS charge density error from multipole expansion :   0.196975E-01

  Integrating Hamiltonian matrix: batch-based integration.
  Time summed over all CPUs for integration: real work        0.735 s, elapsed        0.779 s

  Updating Kohn-Sham eigenvalues and eigenvectors using ELSI and the ELPA eigensolver.
  Starting ELPA eigensolver
  Finished transformation to standard eigenproblem
  | Time :     0.001 s
  Finished solving standard eigenproblem
  | Time :     0.003 s
  Finished back-transformation of eigenvectors
  | Time :     0.000 s

  Obtaining occupation numbers and chemical potential using ELSI.
  | Chemical potential (Fermi level):    -7.08026395 eV
  Highest occupied state (VBM) at     -9.82635629 eV
  | Occupation number:      2.00000000

  Lowest unoccupied state (CBM) at    -4.78785404 eV
  | Occupation number:      0.00000000

  Overall HOMO-LUMO gap:      5.03850225 eV.

  Total energy components:
  | Sum of eigenvalues            :        -886.89684946 Ha      -24133.69118255 eV
  | XC energy correction          :        -145.20733190 Ha       -3951.29254058 eV
  | XC potential correction       :         189.08177846 Ha        5145.17697571 eV
  | Free-atom electrostatic energy:        -781.09796047 Ha      -21254.75693457 eV
  | Hartree energy correction     :          -0.97122938 Ha         -26.42849622 eV
  | Entropy correction            :           0.00000000 Ha           0.00000000 eV
  | ---------------------------
  | Total energy                  :       -1625.09159276 Ha      -44220.99217821 eV
  | Total energy, T -> 0          :       -1625.09159276 Ha      -44220.99217821 eV  <-- do not rely on this value for anything but (periodic) metals
  | Electronic free energy        :       -1625.09159276 Ha      -44220.99217821 eV

  Derived energy quantities:
  | Kinetic energy                :        1627.91845394 Ha       44297.91498474 eV
  | Electrostatic energy          :       -3107.80271479 Ha      -84567.61462238 eV
  | Energy correction for multipole
  | error in Hartree potential    :           0.05492438 Ha           1.49456845 eV
  | Sum of eigenvalues per atom                           :       -2011.14093188 eV
  | Total energy (T->0) per atom                          :       -3685.08268152 eV  <-- do not rely on this value for anything but (periodic) metals
  | Electronic free energy per atom                       :       -3685.08268152 eV
  Evaluating new KS density.
  Integration grid: deviation in total charge (<rho> - N_e) =   4.263256E-14

  Self-consistency convergence accuracy:
  | Change of charge density      :  0.7489E-01
  | Change of sum of eigenvalues  : -0.2044E+01 eV
  | Change of total energy        :  0.5123E-01 eV


------------------------------------------------------------
  End self-consistency iteration #     4       :  max(cpu_time)    wall_clock(cpu1)
  | Time for this iteration                     :        0.090 s           0.088 s
  | Charge density update                       :        0.030 s           0.029 s
  | Density mixing                              :        0.004 s           0.003 s
  | Hartree multipole update                    :        0.001 s           0.002 s
  | Hartree multipole summation                 :        0.017 s           0.016 s
  | Integration                                 :        0.033 s           0.033 s
  | Solution of K.-S. eqns.                     :        0.004 s           0.004 s
  | Total energy evaluation                     :        0.000 s           0.001 s

  Partial memory accounting:
  | Current value for overall tracked memory usage:
  |   Minimum:        0.285 MB (on task 23)
  |   Maximum:        0.304 MB (on task  0)
  |   Average:        0.300 MB
  | Peak value for overall tracked memory usage:
  |   Minimum:        1.335 MB (on task  0 after allocating wave)
  |   Maximum:        1.383 MB (on task  1 after allocating wave)
  |   Average:        1.360 MB
  | Largest tracked array allocation so far:
  |   Minimum:        0.698 MB (gradient_basis_wave on task  0)
  |   Maximum:        0.732 MB (gradient_basis_wave on task 19)
  |   Average:        0.717 MB
  Note:  These values currently only include a subset of arrays which are explicitly tracked.
  The "true" memory usage will be greater.
------------------------------------------------------------

------------------------------------------------------------
          Begin self-consistency iteration #    5

  Date     :  20211214, Time     :  141724.676
------------------------------------------------------------
  Pulay mixing of updated and previous charge densities.
  Renormalizing the density to the exact electron count on the 3D integration grid.
  | Formal number of electrons (from input files) :     120.0000000000
  | Integrated number of electrons on 3D grid     :     120.0000000000
  | Charge integration error                      :       0.0000000000
  | Normalization factor for density and gradient :       1.0000000000

  Evaluating partitioned Hartree potential by multipole expansion.
  | Original multipole sum: apparent total charge =  -0.265779E-13
  | Sum of charges compensated after spline to logarithmic grids =  -0.242032E-04
  | Analytical far-field extrapolation by fixed multipoles:
  | Hartree multipole sum: apparent total charge =  -0.289146E-13
  Summing up the Hartree potential.
  Time summed over all CPUs for potential: real work        0.380 s, elapsed        0.395 s
[...]
   Ionic forces                  :  0.000000E+00  0.000000E+00  0.000000E+00
   Multipole                     : -0.166416E-01 -0.216243E+00  0.407639E+00
   Hartree pot. SCF incomplete   :  0.318854E-04 -0.261674E-04 -0.924032E-05
   Pulay + GGA                   :  0.651498E+00  0.332685E+00 -0.170361E+01
   ----------------------------------------------------------------
   Total forces(  12)            : -0.487633E-03 -0.302605E-03 -0.540235E-03


  Self-consistency convergence accuracy:
  | Change of charge density      :  0.3216E-06
  | Change of sum of eigenvalues  :  0.8261E-04 eV
  | Change of total energy        : -0.2360E-07 eV
  | Change of forces              :  0.3279E-05 eV/A

  Writing Kohn-Sham eigenvalues.

  State    Occupation    Eigenvalue [Ha]    Eigenvalue [eV]
      1       2.00000         -55.585843        -1512.56773
      2       2.00000         -55.585842        -1512.56773
      3       2.00000         -55.585840        -1512.56767
      4       2.00000         -24.256265         -660.04655
      5       2.00000         -24.256254         -660.04626
      6       2.00000         -24.256252         -660.04621
      7       2.00000         -24.256240         -660.04587
      8       2.00000         -24.256236         -660.04576
      9       2.00000         -24.256223         -660.04541
     10       2.00000         -24.212391         -658.85267
     11       2.00000         -24.212377         -658.85229
     12       2.00000         -24.212362         -658.85190
     13       2.00000          -4.045602         -110.08642
     14       2.00000          -4.045540         -110.08475
     15       2.00000          -4.045538         -110.08470
     16       2.00000          -2.637338          -71.76561
     17       2.00000          -2.637249          -71.76321
     18       2.00000          -2.637247          -71.76315
     19       2.00000          -2.637234          -71.76278
     20       2.00000          -2.637232          -71.76275
     21       2.00000          -2.637222          -71.76246
     22       2.00000          -2.636911          -71.75401
     23       2.00000          -2.636620          -71.74609
     24       2.00000          -2.636617          -71.74601
     25       2.00000          -1.169719          -31.82966
     26       2.00000          -1.143694          -31.12149
     27       2.00000          -1.143679          -31.12109
     28       2.00000          -1.132223          -30.80935
     29       2.00000          -1.112123          -30.26242
     30       2.00000          -1.112113          -30.26214
     31       2.00000          -1.082978          -29.46933
     32       2.00000          -1.082963          -29.46893
     33       2.00000          -1.082356          -29.45242
     34       2.00000          -0.558558          -15.19915
     35       2.00000          -0.534802          -14.55271
     36       2.00000          -0.534783          -14.55218
     37       2.00000          -0.495098          -13.47230
     38       2.00000          -0.495087          -13.47201
     39       2.00000          -0.490685          -13.35221
     40       2.00000          -0.490670          -13.35180
     41       2.00000          -0.483314          -13.15165
     42       2.00000          -0.470780          -12.81056
     43       2.00000          -0.470390          -12.79998
     44       2.00000          -0.441309          -12.00862
     45       2.00000          -0.434723          -11.82941
     46       2.00000          -0.431646          -11.74570
     47       2.00000          -0.431634          -11.74536
     48       2.00000          -0.412715          -11.23054
     49       2.00000          -0.412708          -11.23037
     50       2.00000          -0.411358          -11.19361
     51       2.00000          -0.411351          -11.19342
     52       2.00000          -0.403794          -10.98780
     53       2.00000          -0.385808          -10.49836
     54       2.00000          -0.384087          -10.45153
     55       2.00000          -0.384072          -10.45114
     56       2.00000          -0.382720          -10.41435
     57       2.00000          -0.382703          -10.41389
     58       2.00000          -0.381288          -10.37536
     59       2.00000          -0.376742          -10.25166
     60       2.00000          -0.376738          -10.25155
     61       0.00000          -0.104539           -2.84466
     62       0.00000          -0.041454           -1.12803
     63       0.00000          -0.027583           -0.75057
     64       0.00000          -0.027535           -0.74925
     65       0.00000           0.011957            0.32536
     66       0.00000           0.057778            1.57222
     67       0.00000           0.057937            1.57655
     68       0.00000           0.068399            1.86124
     69       0.00000           0.068434            1.86217
     70       0.00000           0.096502            2.62595
     71       0.00000           0.137956            3.75397
     72       0.00000           0.138052            3.75657
     73       0.00000           0.174244            4.74141
     74       0.00000           0.190572            5.18572
     75       0.00000           0.191843            5.22032
     76       0.00000           0.191903            5.22193
     77       0.00000           0.208804            5.68185
     78       0.00000           0.216733            5.89762
     79       0.00000           0.231971            6.31224
     80       0.00000           0.232044            6.31423
     81       0.00000           0.252523            6.87151
     82       0.00000           0.252546            6.87213
     83       0.00000           0.253506            6.89826
     84       0.00000           0.253539            6.89914
     85       0.00000           0.268510            7.30654
     86       0.00000           0.268578            7.30837
     87       0.00000           0.274880            7.47987
     88       0.00000           0.287618            7.82648
     89       0.00000           0.307467            8.36659
     90       0.00000           0.307509            8.36773
     91       0.00000           0.347631            9.45953
     92       0.00000           0.379639           10.33051
     93       0.00000           0.407469           11.08780
     94       0.00000           0.418142           11.37823
     95       0.00000           0.418256           11.38133
     96       0.00000           0.427456           11.63168

  Highest occupied state (VBM) at    -10.25155166 eV
  | Occupation number:      2.00000000

  Lowest unoccupied state (CBM) at    -2.84466436 eV
  | Occupation number:      0.00000000

  Overall HOMO-LUMO gap:      7.40688730 eV.
  | Chemical Potential                          :    -6.23003202 eV

  Self-consistency cycle converged.


------------------------------------------------------------
  End self-consistency iteration #     6       :  max(cpu_time)    wall_clock(cpu1)
  | Time for this iteration                     :        0.279 s           0.278 s
  | Charge density & force component update     :        0.158 s           0.159 s
  | Density mixing                              :        0.004 s           0.002 s
  | Hartree multipole update                    :        0.001 s           0.001 s
  | Hartree multipole summation                 :        0.047 s           0.048 s
  | Hartree pot. SCF incomplete forces          :        0.030 s           0.030 s
  | Integration                                 :        0.033 s           0.033 s
  | Solution of K.-S. eqns.                     :        0.004 s           0.004 s
  | Total energy evaluation                     :        0.000 s           0.000 s

  Partial memory accounting:
  | Current value for overall tracked memory usage:
  |   Minimum:        0.291 MB (on task 23)
  |   Maximum:        0.316 MB (on task  0)
  |   Average:        0.310 MB
  | Peak value for overall tracked memory usage:
  |   Minimum:        3.058 MB (on task 19 after allocating hessian_basis_wave)
  |   Maximum:        3.128 MB (on task  4 after allocating hessian_basis_wave)
  |   Average:        3.103 MB
  | Largest tracked array allocation so far:
  |   Minimum:        1.494 MB (hessian_basis_wave on task 19)
  |   Maximum:        1.536 MB (hessian_basis_wave on task 23)
  |   Average:        1.516 MB
  Note:  These values currently only include a subset of arrays which are explicitly tracked.
  The "true" memory usage will be greater.
------------------------------------------------------------
  Removing unitary transformations (pure translations, rotations) from forces on atoms.
  Atomic forces before filtering:
  | Net force on center of mass :  -0.401854E-02 -0.177782E-02 -0.258116E-02 eV/A
  | Net torque on center of mass:   0.893956E-02 -0.554888E-03 -0.836586E-02 eV
  Atomic forces after filtering:
  | Net force on center of mass :   0.148091E-17  0.522674E-18  0.871124E-18 eV/A
  | Net torque on center of mass:  -0.875860E-18 -0.297331E-17  0.726042E-18 eV

  Energy and forces in a compact form:
  | Total energy uncorrected      :         -0.442226807081269E+05 eV
  | Total energy corrected        :         -0.442226807081269E+05 eV  <-- do not rely on this value for anything but (periodic) metals
  | Electronic free energy        :         -0.442226807081269E+05 eV
  Total atomic forces (unitary forces cleaned) [eV/Ang]:
  |    1          0.144917919080039E-03          0.811306017533136E-04         -0.222326011943917E-03
  |    2          0.768144107463221E-04         -0.325831143874270E-03         -0.147383162528723E-04
  |    3          0.253579056318512E-04          0.130905771183236E-03          0.355978970360372E-03
  |    4          0.202450534487297E-04         -0.792382772208165E-04         -0.116684929527113E-04
  |    5          0.102824315876694E-03         -0.432813741942769E-04          0.592146212044694E-04
  |    6         -0.445831930947493E-04         -0.313994781470131E-04         -0.819139024338502E-05
  |    7         -0.259865182036221E-04         -0.343247664114754E-06          0.185353813233683E-04
  |    8         -0.288005454395575E-04          0.210842244967087E-04         -0.113975672664431E-04
  |    9         -0.107978317006226E-03          0.140178059824276E-03         -0.780401230363635E-05
  |   10          0.291126165550094E-04         -0.257040565565713E-03         -0.306245521811373E-04
  |   11         -0.250652804081350E-03          0.162671079050168E-03         -0.505978410676252E-04
  |   12          0.587291564868612E-04          0.201164350358501E-03         -0.763807886764817E-04

  ------------------------------------ 
  Start decomposition of the XC Energy 
  ------------------------------------ 
  X and C from original XC functional choice 
  Hartree-Fock Energy :          0.000000000 Ha              0.000000000 eV
  X Energy            :       -140.594146640 Ha          -3825.761382660 eV
  C Energy            :         -4.999028465 Ha           -136.030485683 eV
  Total XC Energy     :       -145.593175104 Ha          -3961.791868343 eV
  ------------------------------------ 
  LDA X and C from self-consistent density 
  X Energy LDA        :       -133.219788250 Ha          -3625.094881085 eV
  C Energy LDA        :         -8.853174103 Ha           -240.907124574 eV
  ------------------------------------ 
  End decomposition of the XC Energy 
  ------------------------------------ 

------------------------------------------------------------
  Relaxation / MD: End force evaluation.       :  max(cpu_time)    wall_clock(cpu1)
  | Time for this force evaluation              :        1.023 s           1.059 s

------------------------------------------------------------
  Geometry optimization: Attempting to predict improved coordinates.

  Removing unitary transformations (pure translations, rotations) from forces on atoms.
  Atomic forces before filtering:
  | Net force on center of mass :   0.148091E-17  0.522674E-18  0.871124E-18 eV/A
  | Net torque on center of mass:  -0.875860E-18 -0.297331E-17  0.726042E-18 eV
  Atomic forces after filtering:
  | Net force on center of mass :   0.762233E-19  0.871124E-19 -0.326671E-19 eV/A
  | Net torque on center of mass:   0.184392E-18  0.230489E-19  0.126769E-18 eV
  Net remaining forces (excluding translations, rotations) in present geometry:
  || Forces on atoms   || =   0.355979E-03 eV/A.
  Maximum force component is  0.355979E-03 eV/A.
  Present geometry is converged.

------------------------------------------------------------
  Final atomic structure:
                         x [A]             y [A]             z [A]
            atom         0.27445871       -2.33165284       -1.82822142  Al
            atom         2.03804326       -0.54026996       -0.80580976  Al
            atom        -0.33772277        0.31223612       -1.80282013  Al
            atom         3.48566722       -0.21220635       -0.09959645  F
            atom        -0.12701294       -3.88314870       -2.19394345  F
            atom         2.02913858       -1.79042060       -2.20175206  F
            atom         1.47467262        0.60358735       -2.17910047  F
            atom        -1.38265092        1.53479813       -2.14245613  F
            atom        -1.06006419       -1.25490776       -1.07226425  F
            atom        -0.12233047       -1.01843114       -3.10461524  F
            atom         0.53697924        0.36748867       -0.14656251  F
            atom         1.09101768       -2.02658591       -0.16940112  F
------------------------------------------------------------

------------------------------------------------------------------------------
  Final output of selected total energy values:

  The following output summarizes some interesting total energy values
  at the end of a run (AFTER all relaxation, molecular dynamics, etc.).

  | Total energy of the DFT / Hartree-Fock s.c.f. calculation      :         -44222.680708127 eV
  | Final zero-broadening corrected energy (caution - metals only) :         -44222.680708127 eV
  | For reference only, the value of 1 Hartree used in FHI-aims is :             27.211384500 eV

  Before relying on these values, please be sure to understand exactly which
  total energy value is referred to by a given number. Different objects may
  all carry the same name 'total energy'. Definitions:

  Total energy of the DFT / Hartree-Fock s.c.f. calculation:
  | Note that this energy does not include ANY quantities calculated after the
  | s.c.f. cycle, in particular not ANY RPA, MP2, etc. many-body perturbation terms.

  Final zero-broadening corrected energy:
  | For metallic systems only, a broadening of the occupation numbers at the Fermi
  | level can be extrapolated back to zero broadening by an electron-gas inspired
  | formula. For all systems that are not real metals, this value can be
  | meaningless and should be avoided.

------------------------------------------------------------------------------
  Methods described in the following list of references were used in this FHI-aims run.
  If you publish the results, please make sure to cite these reference if they apply.
  FHI-aims is an academic code, and for our developers (often, Ph.D. students
  and postdocs), scientific credit in the community is essential.
  Thank you for helping us!

  For any use of FHI-aims, please cite:

    Volker Blum, Ralf Gehrke, Felix Hanke, Paula Havu, Ville Havu,
    Xinguo Ren, Karsten Reuter, and Matthias Scheffler
    'Ab initio molecular simulations with numeric atom-centered orbitals'
    Computer Physics Communications 180, 2175-2196 (2009)
    http://dx.doi.org/10.1016/j.cpc.2009.06.022


  The ELSI infrastructure was used in your run to solve the Kohn-Sham electronic structure.
  Please check out http://elsi-interchange.org to learn more.
  If scalability is important for your project, please acknowledge ELSI by citing:

    V. W-z. Yu, F. Corsetti, A. Garcia, W. P. Huhn, M. Jacquelin, W. Jia,
    B. Lange, L. Lin, J. Lu, W. Mi, A. Seifitokaldani, A. Vazquez-Mayagoitia,
    C. Yang, H. Yang, and V. Blum
    'ELSI: A unified software interface for Kohn-Sham electronic structure solvers'
    Computer Physics Communications 222, 267-285 (2018).
    http://dx.doi.org/10.1016/j.cpc.2017.09.007


  For the real-space grid partitioning and parallelization used in this calculation, please cite:

    Ville Havu, Volker Blum, Paula Havu, and Matthias Scheffler,
    'Efficient O(N) integration for all-electron electronic structure calculation'
    'using numerically tabulated basis functions'
    Journal of Computational Physics 228, 8367-8379 (2009).
    http://dx.doi.org/10.1016/j.jcp.2009.08.008

  Of course, there are many other important community references, e.g., those cited in the
  above references. Our list is limited to references that describe implementations in the
  FHI-aims code. The reason is purely practical (length of this list) - please credit others as well.

------------------------------------------------------------
          Leaving FHI-aims.
          Date     :  20211214, Time     :  141737.955

          Computational steps:
          | Number of self-consistency cycles          :           93
          | Number of SCF (re)initializations          :           10
          | Number of relaxation steps                 :            9

          Detailed time accounting                     :  max(cpu_time)    wall_clock(cpu1)
          | Total time                                  :       13.665 s          14.109 s
          | Preparation time                            :        0.184 s           0.192 s
          | Boundary condition initalization            :        0.001 s           0.000 s
          | Grid partitioning                           :        0.428 s           0.429 s
          | Preloading free-atom quantities on grid     :        0.157 s           0.158 s
          | Free-atom superposition energy              :        0.052 s           0.052 s
          | Total time for integrations                 :        3.284 s           3.276 s
          | Total time for solution of K.-S. equations  :        0.404 s           0.407 s
          | Total time for EV reorthonormalization      :        0.026 s           0.026 s
          | Total time for density & force components   :        5.691 s           5.687 s
          | Total time for mixing                       :        0.332 s           0.151 s
          | Total time for Hartree multipole update     :        0.121 s           0.127 s
          | Total time for Hartree multipole sum        :        2.166 s           2.167 s
          | Total time for total energy evaluation      :        0.013 s           0.009 s
          | Total time NSC force correction             :        0.611 s           0.612 s
          | Total time for scaled ZORA corrections      :        0.000 s           0.000 s

          Partial memory accounting:
          | Residual value for overall tracked memory usage across tasks:     0.000000 MB (should be 0.000000 MB)
          | Peak values for overall tracked memory usage:
          |   Minimum:        3.058 MB (on task 19 after allocating hessian_basis_wave)
          |   Maximum:        3.128 MB (on task  4 after allocating hessian_basis_wave)
          |   Average:        3.103 MB
          | Largest tracked array allocation:
          |   Minimum:        1.494 MB (hessian_basis_wave on task 19)
          |   Maximum:        1.536 MB (hessian_basis_wave on task 23)
          |   Average:        1.516 MB
          Note:  These values currently only include a subset of arrays which are explicitly tracked.
          The "true" memory usage will be greater.

          Have a nice day.
------------------------------------------------------------
