12
Lattice="0.0 0.0 0.0 0.0 0.0 0.0 0.0 0.0 0.0" Properties=species:S:1:pos:R:3:forces:R:3 energy=-44227.56076125 pbc="F F F"
Al		0.27445871		-2.33165284		-1.82822142		0.00014492		8.113e-05		-0.00022233
Al		2.03804326		-0.54026996		-0.80580976		7.681e-05		-0.00032583		-1.474e-05
Al		-0.33772277		0.31223612		-1.80282013		2.536e-05		0.00013091		0.00035598
F		3.48566722		-0.21220635		-0.09959645		2.025e-05		-7.924e-05		-1.167e-05
F		-0.12701294		-3.88314870		-2.19394345		0.00010282		-4.328e-05		5.921e-05
F		2.02913858		-1.79042060		-2.20175206		-4.458e-05		-3.14e-05		-8.19e-06
F		1.47467262		0.60358735		-2.17910047		-2.599e-05		-3.4e-07		1.854e-05
F		-1.38265092		1.53479813		-2.14245613		-2.88e-05		2.108e-05		-1.14e-05
F		-1.06006419		-1.25490776		-1.07226425		-0.00010798		0.00014018		-7.8e-06
F		-0.12233047		-1.01843114		-3.10461524		2.911e-05		-0.00025704		-3.062e-05
F		0.53697924		0.36748867		-0.14656251		-0.00025065		0.00016267		-5.06e-05
F		1.09101768		-2.02658591		-0.16940112		5.873e-05		0.00020116		-7.638e-05
12
Lattice="0.0 0.0 0.0 0.0 0.0 0.0 0.0 0.0 0.0" Properties=species:S:1:pos:R:3:forces:R:3 energy=-44222.46954024 pbc="F F F"
Al		0.27441882		-2.33164558		-1.82823377		0.00068558		-0.00048739		-5.609e-05
Al		2.03804164		-0.54022914		-0.80580543		0.00049684		-0.00087798		0.00011628
Al		-0.33771691		0.31221774		-1.80282429		-0.0003897		0.00080756		0.00025028
F		3.48567022		-0.21216905		-0.09958853		-0.00011625		-2.901e-05		-7.177e-05
F		-0.12705363		-3.88314507		-2.19396196		6.093e-05		0.00011956		5.876e-05
F		2.02917541		-1.79052812		-2.20162729		-0.00019848		0.00115647		-0.00181763
F		1.47467820		0.60366658		-2.17907682		-0.00011245		-0.00090683		-0.00029023
F		-1.38264470		1.53478856		-2.14245793		6.653e-05		-0.00012161		2.202e-05
F		-1.06012744		-1.25491529		-1.07228761		0.00072724		0.00024261		0.00025863
F		-0.12239302		-1.01843531		-3.10464938		0.00076885		-0.00020065		0.00045395
F		0.53699561		0.36756279		-0.14656078		-0.00047728		-0.00076657		-8.792e-05
F		1.09115179		-2.02668111		-0.16946920		-0.00151179		0.00106386		0.00116371
12
Lattice="0.0 0.0 0.0 0.0 0.0 0.0 0.0 0.0 0.0" Properties=species:S:1:pos:R:3:forces:R:3 energy=-44221.05110770 pbc="F F F"
Al		0.27454592		-2.33167789		-1.82817136		-0.00125202		-0.00016077		-0.00092198
Al		2.03804627		-0.54034539		-0.80581746		0.0006404		0.00096647		0.00041331
Al		-0.33771835		0.31224421		-1.80282938		-1.43e-05		-1.97e-06		0.0003493
F		3.48565706		-0.21216464		-0.09958761		-0.00042208		-0.00048608		-0.00027918
F		-0.12706271		-3.88314080		-2.19396525		0.00056565		0.00038752		0.00031976
F		2.02912409		-1.79029658		-2.20191865		-0.00027443		-0.00136379		0.0025249
F		1.47467805		0.60354065		-2.17906131		0.00018076		0.00065714		-0.00068959
F		-1.38265692		1.53481600		-2.14246880		0.0002682		-0.0002914		0.00011162
F		-1.05999348		-1.25493063		-1.07231427		-0.00109779		0.00015037		0.00106896
F		-0.12233699		-1.01846290		-3.10453475		0.00023155		-2.505e-05		-0.00143652
F		0.53702253		0.36742802		-0.14659884		-0.00075578		0.00069812		0.00068793
F		1.09089054		-2.02652305		-0.16927531		0.00192984		-0.00053056		-0.0021485
12
Lattice="0.0 0.0 0.0 0.0 0.0 0.0 0.0 0.0 0.0" Properties=species:S:1:pos:R:3:forces:R:3 energy=-44221.04340414 pbc="F F F"
Al		0.27428522		-2.33159744		-1.82827675		0.00419434		0.0034261		0.0020137
Al		2.03801241		-0.54008504		-0.80580438		-0.00351705		-0.00415179		-0.0020745
Al		-0.33767636		0.31212537		-1.80282975		0.00214215		-0.00145052		0.00118673
F		3.48551778		-0.21203347		-0.09962780		0.00329289		0.00100911		0.00159614
F		-0.12719947		-3.88295969		-2.19400436		-0.00112111		-0.00346081		-0.00091882
F		2.02892464		-1.79028628		-2.20160783		0.00336027		-0.00185118		-0.00276648
F		1.47462327		0.60321186		-2.17944639		9.216e-05		0.00409441		0.00448388
F		-1.38250370		1.53462105		-2.14243390		-0.00243041		0.00267516		-0.00076759
F		-1.05974926		-1.25481573		-1.07174285		-0.00271402		-0.00080165		-0.00657189
F		-0.12177598		-1.01825744		-3.10469023		-0.00643115		-0.00231965		0.00201185
F		0.53673113		0.36701998		-0.14646255		0.00273077		0.00511009		-0.00197693
F		1.09100633		-2.02645617		-0.16961624		0.00040117		-0.0022793		0.00378392
12
Lattice="0.0 0.0 0.0 0.0 0.0 0.0 0.0 0.0 0.0" Properties=species:S:1:pos:R:3:forces:R:3 energy=-44220.99217821 pbc="F F F"
Al		0.27461145		-2.33177537		-1.82813331		0.00312868		0.02038444		0.00345306
Al		2.03811346		-0.54037756		-0.80579134		-0.0180193		-0.00247355		-0.00856256
Al		-0.33774493		0.31225395		-1.80285218		0.0139302		-0.01619408		0.00484015
F		3.48503787		-0.21208684		-0.09984257		0.0188488		0.00349792		0.00905522
F		-0.12716461		-3.88245026		-2.19391783		-0.00425036		-0.02039623		-0.00434625
F		2.02957380		-1.79077319		-2.20176525		-0.00607504		0.00421788		0.00201794
F		1.47482874		0.60419276		-2.17876600		-0.00181766		-0.00723803		-0.00346804
F		-1.38220521		1.53431436		-2.14237101		-0.01371841		0.01602282		-0.0043591
F		-1.06052281		-1.25511923		-1.07273738		0.00596161		0.00196582		0.00587959
F		-0.12302714		-1.01866853		-3.10470016		0.00833809		0.00193775		0.0012649
F		0.53729129		0.36805182		-0.14654939		-0.00354612		-0.00729081		-0.00050136
F		1.09140407		-2.02707491		-0.16911657		-0.00278049		0.00556606		-0.00527356
12
Lattice="0.0 0.0 0.0 0.0 0.0 0.0 0.0 0.0 0.0" Properties=species:S:1:pos:R:3:forces:R:3 energy=-44220.98994253 pbc="F F F"
Al		0.27392046		-2.33385610		-1.82866896		0.02155329		0.08013979		0.01894051
Al		2.04008228		-0.53972761		-0.80481227		-0.07376286		-0.01798654		-0.03590743
Al		-0.33909645		0.31374635		-1.80332556		0.05344055		-0.06176134		0.01759128
F		3.48691618		-0.21122077		-0.09885801		0.0184193		0.00352815		0.00884811
F		-0.12825908		-3.88435173		-2.19459128		-0.0040284		-0.02010561		-0.00430605
F		2.03138208		-1.79162818		-2.20323535		-0.04152956		0.01447895		0.04439003
F		1.47613893		0.60563152		-2.18071523		-0.03134183		-0.03211764		0.04642592
F		-1.38349187		1.53582221		-2.14287676		-0.01328149		0.01535256		-0.00412945
F		-1.06258345		-1.25562928		-1.07088810		0.04864042		0.01178529		-0.04147743
F		-0.12298966		-1.01865815		-3.10752614		-0.00019621		-0.00098609		0.06536483
F		0.53649572		0.36882258		-0.14405231		0.01715684		-0.01926248		-0.05882893
F		1.09168087		-2.02846383		-0.16699303		0.00492994		0.02693496		-0.0569114
12
Lattice="0.0 0.0 0.0 0.0 0.0 0.0 0.0 0.0 0.0" Properties=species:S:1:pos:R:3:forces:R:3 energy=-44220.98994802 pbc="F F F"
Al		0.27285479		-2.33878316		-1.82970549		0.01886937		0.08141621		0.01785079
Al		2.04461687		-0.53883240		-0.80262186		-0.07376908		-0.01540359		-0.03536325
Al		-0.34229387		0.31750774		-1.80438058		0.05353145		-0.06277794		0.01715519
F		3.49500004		-0.20906148		-0.09486508		-0.09582267		-0.02342594		-0.04706206
F		-0.13096630		-3.89297672		-2.19677805		0.02898708		0.10238435		0.0250405
F		2.03539543		-1.79473494		-2.20457626		-0.10928675		0.04904911		0.10020417
F		1.47832882		0.61040192		-2.18157160		-0.07546945		-0.0952154		0.09594839
F		-1.38932653		1.54266213		-2.14486937		0.06944445		-0.08135749		0.02296973
F		-1.06764833		-1.25691784		-1.07096336		0.12955071		0.03126397		-0.07836152
F		-0.12626766		-1.01951895		-3.11154168		0.02311084		0.00415161		0.15341993
F		0.53678512		0.37297050		-0.14094038		0.03146383		-0.06752723		-0.13521193
F		1.09371762		-2.03222981		-0.16372930		-0.00060978		0.07744235		-0.13658994
12
Lattice="0.0 0.0 0.0 0.0 0.0 0.0 0.0 0.0 0.0" Properties=species:S:1:pos:R:3:forces:R:3 energy=-44220.98981234 pbc="F F F"
Al		0.26964440		-2.35046873		-1.83246544		0.42041873		1.61635789		0.38138911
Al		2.05566279		-0.53614669		-0.79711816		-1.50681408		-0.34360526		-0.73608949
Al		-0.35018670		0.32665204		-1.80706293		1.08722361		-1.27209517		0.35403106
F		3.47031950		-0.21461075		-0.10699473		1.11749666		0.25453807		0.54586305
F		-0.12424822		-3.86620104		-2.19059273		-0.31108305		-1.20006236		-0.28286781
F		2.02372712		-1.78994169		-2.19253866		0.12002264		-0.02862933		-0.16089347
F		1.47010696		0.60078246		-2.17000926		0.09283319		0.08039227		-0.15658902
F		-1.37135347		1.52161428		-2.13905752		-0.80609288		0.9433711		-0.26237804
F		-1.05411022		-1.25361573		-1.08066497		-0.13286122		-0.0324811		0.14195744
F		-0.12504081		-1.01949557		-3.09462136		0.02283996		0.00842461		-0.1954039
F		0.54075656		0.36637740		-0.15628211		-0.0628851		0.04135834		0.18495017
F		1.09491807		-2.02445899		-0.17913514		-0.04109846		-0.06756905		0.18603091
12
Lattice="0.0 0.0 0.0 0.0 0.0 0.0 0.0 0.0 0.0" Properties=species:S:1:pos:R:3:forces:R:3 energy=-44220.98980735 pbc="F F F"
Al		0.26326451		-2.37540629		-1.83831125		-0.25611679		-0.98333156		-0.23321303
Al		2.07887060		-0.53093122		-0.78589352		0.91593811		0.207917		0.4480249
Al		-0.36705819		0.34645621		-1.81243423		-0.66126036		0.77371022		-0.21600173
F		3.60535763		-0.18454780		-0.04120768		-1.94813301		-0.44121556		-0.95025721
F		-0.16132489		-4.01104435		-2.22457065		0.54134358		2.08875906		0.4928956
F		2.06561079		-1.81251183		-2.22549119		-0.6100307		0.22664867		0.65706359
F		1.49761414		0.64021569		-2.20213229		-0.44576066		-0.48356429		0.64977407
F		-1.46899195		1.63564533		-2.17081091		1.40630279		-1.64492594		0.4575766
F		-1.10497484		-1.26563078		-1.05623936		0.71284346		0.17044617		-0.56220482
F		-0.13865097		-1.02198101		-3.15053692		0.02706227		-0.00330476		0.92365354
F		0.53121227		0.39649426		-0.10780959		0.24059468		-0.31092696		-0.83693292
F		1.09926688		-2.05627120		-0.13110541		0.07721663		0.39978794		-0.8303786
12
Lattice="0.0 0.0 0.0 0.0 0.0 0.0 0.0 0.0 0.0" Properties=species:S:1:pos:R:3:forces:R:3 energy=-44227.56076125 pbc="F F F"
Al		0.27445871		-2.33165284		-1.82822142		0.00014492		8.113e-05		-0.00022233
Al		2.03804326		-0.54026996		-0.80580976		7.681e-05		-0.00032583		-1.474e-05
Al		-0.33772277		0.31223612		-1.80282013		2.536e-05		0.00013091		0.00035598
F		3.48566722		-0.21220635		-0.09959645		2.025e-05		-7.924e-05		-1.167e-05
F		-0.12701294		-3.88314870		-2.19394345		0.00010282		-4.328e-05		5.921e-05
F		2.02913858		-1.79042060		-2.20175206		-4.458e-05		-3.14e-05		-8.19e-06
F		1.47467262		0.60358735		-2.17910047		-2.599e-05		-3.4e-07		1.854e-05
F		-1.38265092		1.53479813		-2.14245613		-2.88e-05		2.108e-05		-1.14e-05
F		-1.06006419		-1.25490776		-1.07226425		-0.00010798		0.00014018		-7.8e-06
F		-0.12233047		-1.01843114		-3.10461524		2.911e-05		-0.00025704		-3.062e-05
F		0.53697924		0.36748867		-0.14656251		-0.00025065		0.00016267		-5.06e-05
F		1.09101768		-2.02658591		-0.16940112		5.873e-05		0.00020116		-7.638e-05
12
Lattice="0.0 0.0 0.0 0.0 0.0 0.0 0.0 0.0 0.0" Properties=species:S:1:pos:R:3:forces:R:3 energy=-44222.46954024 pbc="F F F"
Al		0.27441882		-2.33164558		-1.82823377		0.00068558		-0.00048739		-5.609e-05
Al		2.03804164		-0.54022914		-0.80580543		0.00049684		-0.00087798		0.00011628
Al		-0.33771691		0.31221774		-1.80282429		-0.0003897		0.00080756		0.00025028
F		3.48567022		-0.21216905		-0.09958853		-0.00011625		-2.901e-05		-7.177e-05
F		-0.12705363		-3.88314507		-2.19396196		6.093e-05		0.00011956		5.876e-05
F		2.02917541		-1.79052812		-2.20162729		-0.00019848		0.00115647		-0.00181763
F		1.47467820		0.60366658		-2.17907682		-0.00011245		-0.00090683		-0.00029023
F		-1.38264470		1.53478856		-2.14245793		6.653e-05		-0.00012161		2.202e-05
F		-1.06012744		-1.25491529		-1.07228761		0.00072724		0.00024261		0.00025863
F		-0.12239302		-1.01843531		-3.10464938		0.00076885		-0.00020065		0.00045395
F		0.53699561		0.36756279		-0.14656078		-0.00047728		-0.00076657		-8.792e-05
F		1.09115179		-2.02668111		-0.16946920		-0.00151179		0.00106386		0.00116371
12
Lattice="0.0 0.0 0.0 0.0 0.0 0.0 0.0 0.0 0.0" Properties=species:S:1:pos:R:3:forces:R:3 energy=-44221.05110770 pbc="F F F"
Al		0.27454592		-2.33167789		-1.82817136		-0.00125202		-0.00016077		-0.00092198
Al		2.03804627		-0.54034539		-0.80581746		0.0006404		0.00096647		0.00041331
Al		-0.33771835		0.31224421		-1.80282938		-1.43e-05		-1.97e-06		0.0003493
F		3.48565706		-0.21216464		-0.09958761		-0.00042208		-0.00048608		-0.00027918
F		-0.12706271		-3.88314080		-2.19396525		0.00056565		0.00038752		0.00031976
F		2.02912409		-1.79029658		-2.20191865		-0.00027443		-0.00136379		0.0025249
F		1.47467805		0.60354065		-2.17906131		0.00018076		0.00065714		-0.00068959
F		-1.38265692		1.53481600		-2.14246880		0.0002682		-0.0002914		0.00011162
F		-1.05999348		-1.25493063		-1.07231427		-0.00109779		0.00015037		0.00106896
F		-0.12233699		-1.01846290		-3.10453475		0.00023155		-2.505e-05		-0.00143652
F		0.53702253		0.36742802		-0.14659884		-0.00075578		0.00069812		0.00068793
F		1.09089054		-2.02652305		-0.16927531		0.00192984		-0.00053056		-0.0021485
12
Lattice="0.0 0.0 0.0 0.0 0.0 0.0 0.0 0.0 0.0" Properties=species:S:1:pos:R:3:forces:R:3 energy=-44221.04340414 pbc="F F F"
Al		0.27428522		-2.33159744		-1.82827675		0.00419434		0.0034261		0.0020137
Al		2.03801241		-0.54008504		-0.80580438		-0.00351705		-0.00415179		-0.0020745
Al		-0.33767636		0.31212537		-1.80282975		0.00214215		-0.00145052		0.00118673
F		3.48551778		-0.21203347		-0.09962780		0.00329289		0.00100911		0.00159614
F		-0.12719947		-3.88295969		-2.19400436		-0.00112111		-0.00346081		-0.00091882
F		2.02892464		-1.79028628		-2.20160783		0.00336027		-0.00185118		-0.00276648
F		1.47462327		0.60321186		-2.17944639		9.216e-05		0.00409441		0.00448388
F		-1.38250370		1.53462105		-2.14243390		-0.00243041		0.00267516		-0.00076759
F		-1.05974926		-1.25481573		-1.07174285		-0.00271402		-0.00080165		-0.00657189
F		-0.12177598		-1.01825744		-3.10469023		-0.00643115		-0.00231965		0.00201185
F		0.53673113		0.36701998		-0.14646255		0.00273077		0.00511009		-0.00197693
F		1.09100633		-2.02645617		-0.16961624		0.00040117		-0.0022793		0.00378392
12
Lattice="0.0 0.0 0.0 0.0 0.0 0.0 0.0 0.0 0.0" Properties=species:S:1:pos:R:3:forces:R:3 energy=-44220.99217821 pbc="F F F"
Al		0.27461145		-2.33177537		-1.82813331		0.00312868		0.02038444		0.00345306
Al		2.03811346		-0.54037756		-0.80579134		-0.0180193		-0.00247355		-0.00856256
Al		-0.33774493		0.31225395		-1.80285218		0.0139302		-0.01619408		0.00484015
F		3.48503787		-0.21208684		-0.09984257		0.0188488		0.00349792		0.00905522
F		-0.12716461		-3.88245026		-2.19391783		-0.00425036		-0.02039623		-0.00434625
F		2.02957380		-1.79077319		-2.20176525		-0.00607504		0.00421788		0.00201794
F		1.47482874		0.60419276		-2.17876600		-0.00181766		-0.00723803		-0.00346804
F		-1.38220521		1.53431436		-2.14237101		-0.01371841		0.01602282		-0.0043591
F		-1.06052281		-1.25511923		-1.07273738		0.00596161		0.00196582		0.00587959
F		-0.12302714		-1.01866853		-3.10470016		0.00833809		0.00193775		0.0012649
F		0.53729129		0.36805182		-0.14654939		-0.00354612		-0.00729081		-0.00050136
F		1.09140407		-2.02707491		-0.16911657		-0.00278049		0.00556606		-0.00527356
12
Lattice="0.0 0.0 0.0 0.0 0.0 0.0 0.0 0.0 0.0" Properties=species:S:1:pos:R:3:forces:R:3 energy=-44220.98994253 pbc="F F F"
Al		0.27392046		-2.33385610		-1.82866896		0.02155329		0.08013979		0.01894051
Al		2.04008228		-0.53972761		-0.80481227		-0.07376286		-0.01798654		-0.03590743
Al		-0.33909645		0.31374635		-1.80332556		0.05344055		-0.06176134		0.01759128
F		3.48691618		-0.21122077		-0.09885801		0.0184193		0.00352815		0.00884811
F		-0.12825908		-3.88435173		-2.19459128		-0.0040284		-0.02010561		-0.00430605
F		2.03138208		-1.79162818		-2.20323535		-0.04152956		0.01447895		0.04439003
F		1.47613893		0.60563152		-2.18071523		-0.03134183		-0.03211764		0.04642592
F		-1.38349187		1.53582221		-2.14287676		-0.01328149		0.01535256		-0.00412945
F		-1.06258345		-1.25562928		-1.07088810		0.04864042		0.01178529		-0.04147743
F		-0.12298966		-1.01865815		-3.10752614		-0.00019621		-0.00098609		0.06536483
F		0.53649572		0.36882258		-0.14405231		0.01715684		-0.01926248		-0.05882893
F		1.09168087		-2.02846383		-0.16699303		0.00492994		0.02693496		-0.0569114
12
Lattice="0.0 0.0 0.0 0.0 0.0 0.0 0.0 0.0 0.0" Properties=species:S:1:pos:R:3:forces:R:3 energy=-44220.98994802 pbc="F F F"
Al		0.27285479		-2.33878316		-1.82970549		0.01886937		0.08141621		0.01785079
Al		2.04461687		-0.53883240		-0.80262186		-0.07376908		-0.01540359		-0.03536325
Al		-0.34229387		0.31750774		-1.80438058		0.05353145		-0.06277794		0.01715519
F		3.49500004		-0.20906148		-0.09486508		-0.09582267		-0.02342594		-0.04706206
F		-0.13096630		-3.89297672		-2.19677805		0.02898708		0.10238435		0.0250405
F		2.03539543		-1.79473494		-2.20457626		-0.10928675		0.04904911		0.10020417
F		1.47832882		0.61040192		-2.18157160		-0.07546945		-0.0952154		0.09594839
F		-1.38932653		1.54266213		-2.14486937		0.06944445		-0.08135749		0.02296973
F		-1.06764833		-1.25691784		-1.07096336		0.12955071		0.03126397		-0.07836152
F		-0.12626766		-1.01951895		-3.11154168		0.02311084		0.00415161		0.15341993
F		0.53678512		0.37297050		-0.14094038		0.03146383		-0.06752723		-0.13521193
F		1.09371762		-2.03222981		-0.16372930		-0.00060978		0.07744235		-0.13658994
12
Lattice="0.0 0.0 0.0 0.0 0.0 0.0 0.0 0.0 0.0" Properties=species:S:1:pos:R:3:forces:R:3 energy=-44220.98981234 pbc="F F F"
Al		0.26964440		-2.35046873		-1.83246544		0.42041873		1.61635789		0.38138911
Al		2.05566279		-0.53614669		-0.79711816		-1.50681408		-0.34360526		-0.73608949
Al		-0.35018670		0.32665204		-1.80706293		1.08722361		-1.27209517		0.35403106
F		3.47031950		-0.21461075		-0.10699473		1.11749666		0.25453807		0.54586305
F		-0.12424822		-3.86620104		-2.19059273		-0.31108305		-1.20006236		-0.28286781
F		2.02372712		-1.78994169		-2.19253866		0.12002264		-0.02862933		-0.16089347
F		1.47010696		0.60078246		-2.17000926		0.09283319		0.08039227		-0.15658902
F		-1.37135347		1.52161428		-2.13905752		-0.80609288		0.9433711		-0.26237804
F		-1.05411022		-1.25361573		-1.08066497		-0.13286122		-0.0324811		0.14195744
F		-0.12504081		-1.01949557		-3.09462136		0.02283996		0.00842461		-0.1954039
F		0.54075656		0.36637740		-0.15628211		-0.0628851		0.04135834		0.18495017
F		1.09491807		-2.02445899		-0.17913514		-0.04109846		-0.06756905		0.18603091
12
Lattice="0.0 0.0 0.0 0.0 0.0 0.0 0.0 0.0 0.0" Properties=species:S:1:pos:R:3:forces:R:3 energy=-44220.98980735 pbc="F F F"
Al		0.26326451		-2.37540629		-1.83831125		-0.25611679		-0.98333156		-0.23321303
Al		2.07887060		-0.53093122		-0.78589352		0.91593811		0.207917		0.4480249
Al		-0.36705819		0.34645621		-1.81243423		-0.66126036		0.77371022		-0.21600173
F		3.60535763		-0.18454780		-0.04120768		-1.94813301		-0.44121556		-0.95025721
F		-0.16132489		-4.01104435		-2.22457065		0.54134358		2.08875906		0.4928956
F		2.06561079		-1.81251183		-2.22549119		-0.6100307		0.22664867		0.65706359
F		1.49761414		0.64021569		-2.20213229		-0.44576066		-0.48356429		0.64977407
F		-1.46899195		1.63564533		-2.17081091		1.40630279		-1.64492594		0.4575766
F		-1.10497484		-1.26563078		-1.05623936		0.71284346		0.17044617		-0.56220482
F		-0.13865097		-1.02198101		-3.15053692		0.02706227		-0.00330476		0.92365354
F		0.53121227		0.39649426		-0.10780959		0.24059468		-0.31092696		-0.83693292
F		1.09926688		-2.05627120		-0.13110541		0.07721663		0.39978794		-0.8303786
12
Lattice="0.0 0.0 0.0 0.0 0.0 0.0 0.0 0.0 0.0" Properties=species:S:1:pos:R:3:forces:R:3 energy=-44227.56076125 pbc="F F F"
Al		0.27445871		-2.33165284		-1.82822142		0.00014492		8.113e-05		-0.00022233
Al		2.03804326		-0.54026996		-0.80580976		7.681e-05		-0.00032583		-1.474e-05
Al		-0.33772277		0.31223612		-1.80282013		2.536e-05		0.00013091		0.00035598
F		3.48566722		-0.21220635		-0.09959645		2.025e-05		-7.924e-05		-1.167e-05
F		-0.12701294		-3.88314870		-2.19394345		0.00010282		-4.328e-05		5.921e-05
F		2.02913858		-1.79042060		-2.20175206		-4.458e-05		-3.14e-05		-8.19e-06
F		1.47467262		0.60358735		-2.17910047		-2.599e-05		-3.4e-07		1.854e-05
F		-1.38265092		1.53479813		-2.14245613		-2.88e-05		2.108e-05		-1.14e-05
F		-1.06006419		-1.25490776		-1.07226425		-0.00010798		0.00014018		-7.8e-06
F		-0.12233047		-1.01843114		-3.10461524		2.911e-05		-0.00025704		-3.062e-05
F		0.53697924		0.36748867		-0.14656251		-0.00025065		0.00016267		-5.06e-05
F		1.09101768		-2.02658591		-0.16940112		5.873e-05		0.00020116		-7.638e-05
12
Lattice="0.0 0.0 0.0 0.0 0.0 0.0 0.0 0.0 0.0" Properties=species:S:1:pos:R:3:forces:R:3 energy=-44222.46954024 pbc="F F F"
Al		0.27441882		-2.33164558		-1.82823377		0.00068558		-0.00048739		-5.609e-05
Al		2.03804164		-0.54022914		-0.80580543		0.00049684		-0.00087798		0.00011628
Al		-0.33771691		0.31221774		-1.80282429		-0.0003897		0.00080756		0.00025028
F		3.48567022		-0.21216905		-0.09958853		-0.00011625		-2.901e-05		-7.177e-05
F		-0.12705363		-3.88314507		-2.19396196		6.093e-05		0.00011956		5.876e-05
F		2.02917541		-1.79052812		-2.20162729		-0.00019848		0.00115647		-0.00181763
F		1.47467820		0.60366658		-2.17907682		-0.00011245		-0.00090683		-0.00029023
F		-1.38264470		1.53478856		-2.14245793		6.653e-05		-0.00012161		2.202e-05
F		-1.06012744		-1.25491529		-1.07228761		0.00072724		0.00024261		0.00025863
F		-0.12239302		-1.01843531		-3.10464938		0.00076885		-0.00020065		0.00045395
F		0.53699561		0.36756279		-0.14656078		-0.00047728		-0.00076657		-8.792e-05
F		1.09115179		-2.02668111		-0.16946920		-0.00151179		0.00106386		0.00116371
12
Lattice="0.0 0.0 0.0 0.0 0.0 0.0 0.0 0.0 0.0" Properties=species:S:1:pos:R:3:forces:R:3 energy=-44221.05110770 pbc="F F F"
Al		0.27454592		-2.33167789		-1.82817136		-0.00125202		-0.00016077		-0.00092198
Al		2.03804627		-0.54034539		-0.80581746		0.0006404		0.00096647		0.00041331
Al		-0.33771835		0.31224421		-1.80282938		-1.43e-05		-1.97e-06		0.0003493
F		3.48565706		-0.21216464		-0.09958761		-0.00042208		-0.00048608		-0.00027918
F		-0.12706271		-3.88314080		-2.19396525		0.00056565		0.00038752		0.00031976
F		2.02912409		-1.79029658		-2.20191865		-0.00027443		-0.00136379		0.0025249
F		1.47467805		0.60354065		-2.17906131		0.00018076		0.00065714		-0.00068959
F		-1.38265692		1.53481600		-2.14246880		0.0002682		-0.0002914		0.00011162
F		-1.05999348		-1.25493063		-1.07231427		-0.00109779		0.00015037		0.00106896
F		-0.12233699		-1.01846290		-3.10453475		0.00023155		-2.505e-05		-0.00143652
F		0.53702253		0.36742802		-0.14659884		-0.00075578		0.00069812		0.00068793
F		1.09089054		-2.02652305		-0.16927531		0.00192984		-0.00053056		-0.0021485
12
Lattice="0.0 0.0 0.0 0.0 0.0 0.0 0.0 0.0 0.0" Properties=species:S:1:pos:R:3:forces:R:3 energy=-44221.04340414 pbc="F F F"
Al		0.27428522		-2.33159744		-1.82827675		0.00419434		0.0034261		0.0020137
Al		2.03801241		-0.54008504		-0.80580438		-0.00351705		-0.00415179		-0.0020745
Al		-0.33767636		0.31212537		-1.80282975		0.00214215		-0.00145052		0.00118673
F		3.48551778		-0.21203347		-0.09962780		0.00329289		0.00100911		0.00159614
F		-0.12719947		-3.88295969		-2.19400436		-0.00112111		-0.00346081		-0.00091882
F		2.02892464		-1.79028628		-2.20160783		0.00336027		-0.00185118		-0.00276648
F		1.47462327		0.60321186		-2.17944639		9.216e-05		0.00409441		0.00448388
F		-1.38250370		1.53462105		-2.14243390		-0.00243041		0.00267516		-0.00076759
F		-1.05974926		-1.25481573		-1.07174285		-0.00271402		-0.00080165		-0.00657189
F		-0.12177598		-1.01825744		-3.10469023		-0.00643115		-0.00231965		0.00201185
F		0.53673113		0.36701998		-0.14646255		0.00273077		0.00511009		-0.00197693
F		1.09100633		-2.02645617		-0.16961624		0.00040117		-0.0022793		0.00378392
12
Lattice="0.0 0.0 0.0 0.0 0.0 0.0 0.0 0.0 0.0" Properties=species:S:1:pos:R:3:forces:R:3 energy=-44220.99217821 pbc="F F F"
Al		0.27461145		-2.33177537		-1.82813331		0.00312868		0.02038444		0.00345306
Al		2.03811346		-0.54037756		-0.80579134		-0.0180193		-0.00247355		-0.00856256
Al		-0.33774493		0.31225395		-1.80285218		0.0139302		-0.01619408		0.00484015
F		3.48503787		-0.21208684		-0.09984257		0.0188488		0.00349792		0.00905522
F		-0.12716461		-3.88245026		-2.19391783		-0.00425036		-0.02039623		-0.00434625
F		2.02957380		-1.79077319		-2.20176525		-0.00607504		0.00421788		0.00201794
F		1.47482874		0.60419276		-2.17876600		-0.00181766		-0.00723803		-0.00346804
F		-1.38220521		1.53431436		-2.14237101		-0.01371841		0.01602282		-0.0043591
F		-1.06052281		-1.25511923		-1.07273738		0.00596161		0.00196582		0.00587959
F		-0.12302714		-1.01866853		-3.10470016		0.00833809		0.00193775		0.0012649
F		0.53729129		0.36805182		-0.14654939		-0.00354612		-0.00729081		-0.00050136
F		1.09140407		-2.02707491		-0.16911657		-0.00278049		0.00556606		-0.00527356
12
Lattice="0.0 0.0 0.0 0.0 0.0 0.0 0.0 0.0 0.0" Properties=species:S:1:pos:R:3:forces:R:3 energy=-44220.98994253 pbc="F F F"
Al		0.27392046		-2.33385610		-1.82866896		0.02155329		0.08013979		0.01894051
Al		2.04008228		-0.53972761		-0.80481227		-0.07376286		-0.01798654		-0.03590743
Al		-0.33909645		0.31374635		-1.80332556		0.05344055		-0.06176134		0.01759128
F		3.48691618		-0.21122077		-0.09885801		0.0184193		0.00352815		0.00884811
F		-0.12825908		-3.88435173		-2.19459128		-0.0040284		-0.02010561		-0.00430605
F		2.03138208		-1.79162818		-2.20323535		-0.04152956		0.01447895		0.04439003
F		1.47613893		0.60563152		-2.18071523		-0.03134183		-0.03211764		0.04642592
F		-1.38349187		1.53582221		-2.14287676		-0.01328149		0.01535256		-0.00412945
F		-1.06258345		-1.25562928		-1.07088810		0.04864042		0.01178529		-0.04147743
F		-0.12298966		-1.01865815		-3.10752614		-0.00019621		-0.00098609		0.06536483
F		0.53649572		0.36882258		-0.14405231		0.01715684		-0.01926248		-0.05882893
F		1.09168087		-2.02846383		-0.16699303		0.00492994		0.02693496		-0.0569114
12
Lattice="0.0 0.0 0.0 0.0 0.0 0.0 0.0 0.0 0.0" Properties=species:S:1:pos:R:3:forces:R:3 energy=-44220.98994802 pbc="F F F"
Al		0.27285479		-2.33878316		-1.82970549		0.01886937		0.08141621		0.01785079
Al		2.04461687		-0.53883240		-0.80262186		-0.07376908		-0.01540359		-0.03536325
Al		-0.34229387		0.31750774		-1.80438058		0.05353145		-0.06277794		0.01715519
F		3.49500004		-0.20906148		-0.09486508		-0.09582267		-0.02342594		-0.04706206
F		-0.13096630		-3.89297672		-2.19677805		0.02898708		0.10238435		0.0250405
F		2.03539543		-1.79473494		-2.20457626		-0.10928675		0.04904911		0.10020417
F		1.47832882		0.61040192		-2.18157160		-0.07546945		-0.0952154		0.09594839
F		-1.38932653		1.54266213		-2.14486937		0.06944445		-0.08135749		0.02296973
F		-1.06764833		-1.25691784		-1.07096336		0.12955071		0.03126397		-0.07836152
F		-0.12626766		-1.01951895		-3.11154168		0.02311084		0.00415161		0.15341993
F		0.53678512		0.37297050		-0.14094038		0.03146383		-0.06752723		-0.13521193
F		1.09371762		-2.03222981		-0.16372930		-0.00060978		0.07744235		-0.13658994
12
Lattice="0.0 0.0 0.0 0.0 0.0 0.0 0.0 0.0 0.0" Properties=species:S:1:pos:R:3:forces:R:3 energy=-44220.98981234 pbc="F F F"
Al		0.26964440		-2.35046873		-1.83246544		0.42041873		1.61635789		0.38138911
Al		2.05566279		-0.53614669		-0.79711816		-1.50681408		-0.34360526		-0.73608949
Al		-0.35018670		0.32665204		-1.80706293		1.08722361		-1.27209517		0.35403106
F		3.47031950		-0.21461075		-0.10699473		1.11749666		0.25453807		0.54586305
F		-0.12424822		-3.86620104		-2.19059273		-0.31108305		-1.20006236		-0.28286781
F		2.02372712		-1.78994169		-2.19253866		0.12002264		-0.02862933		-0.16089347
F		1.47010696		0.60078246		-2.17000926		0.09283319		0.08039227		-0.15658902
F		-1.37135347		1.52161428		-2.13905752		-0.80609288		0.9433711		-0.26237804
F		-1.05411022		-1.25361573		-1.08066497		-0.13286122		-0.0324811		0.14195744
F		-0.12504081		-1.01949557		-3.09462136		0.02283996		0.00842461		-0.1954039
F		0.54075656		0.36637740		-0.15628211		-0.0628851		0.04135834		0.18495017
F		1.09491807		-2.02445899		-0.17913514		-0.04109846		-0.06756905		0.18603091
12
Lattice="0.0 0.0 0.0 0.0 0.0 0.0 0.0 0.0 0.0" Properties=species:S:1:pos:R:3:forces:R:3 energy=-44220.98980735 pbc="F F F"
Al		0.26326451		-2.37540629		-1.83831125		-0.25611679		-0.98333156		-0.23321303
Al		2.07887060		-0.53093122		-0.78589352		0.91593811		0.207917		0.4480249
Al		-0.36705819		0.34645621		-1.81243423		-0.66126036		0.77371022		-0.21600173
F		3.60535763		-0.18454780		-0.04120768		-1.94813301		-0.44121556		-0.95025721
F		-0.16132489		-4.01104435		-2.22457065		0.54134358		2.08875906		0.4928956
F		2.06561079		-1.81251183		-2.22549119		-0.6100307		0.22664867		0.65706359
F		1.49761414		0.64021569		-2.20213229		-0.44576066		-0.48356429		0.64977407
F		-1.46899195		1.63564533		-2.17081091		1.40630279		-1.64492594		0.4575766
F		-1.10497484		-1.26563078		-1.05623936		0.71284346		0.17044617		-0.56220482
F		-0.13865097		-1.02198101		-3.15053692		0.02706227		-0.00330476		0.92365354
F		0.53121227		0.39649426		-0.10780959		0.24059468		-0.31092696		-0.83693292
F		1.09926688		-2.05627120		-0.13110541		0.07721663		0.39978794		-0.8303786
12
Lattice="0.0 0.0 0.0 0.0 0.0 0.0 0.0 0.0 0.0" Properties=species:S:1:pos:R:3:forces:R:3 energy=-44227.56076125 pbc="F F F"
Al		0.27445871		-2.33165284		-1.82822142		0.00014492		8.113e-05		-0.00022233
Al		2.03804326		-0.54026996		-0.80580976		7.681e-05		-0.00032583		-1.474e-05
Al		-0.33772277		0.31223612		-1.80282013		2.536e-05		0.00013091		0.00035598
F		3.48566722		-0.21220635		-0.09959645		2.025e-05		-7.924e-05		-1.167e-05
F		-0.12701294		-3.88314870		-2.19394345		0.00010282		-4.328e-05		5.921e-05
F		2.02913858		-1.79042060		-2.20175206		-4.458e-05		-3.14e-05		-8.19e-06
F		1.47467262		0.60358735		-2.17910047		-2.599e-05		-3.4e-07		1.854e-05
F		-1.38265092		1.53479813		-2.14245613		-2.88e-05		2.108e-05		-1.14e-05
F		-1.06006419		-1.25490776		-1.07226425		-0.00010798		0.00014018		-7.8e-06
F		-0.12233047		-1.01843114		-3.10461524		2.911e-05		-0.00025704		-3.062e-05
F		0.53697924		0.36748867		-0.14656251		-0.00025065		0.00016267		-5.06e-05
F		1.09101768		-2.02658591		-0.16940112		5.873e-05		0.00020116		-7.638e-05
12
Lattice="0.0 0.0 0.0 0.0 0.0 0.0 0.0 0.0 0.0" Properties=species:S:1:pos:R:3:forces:R:3 energy=-44222.46954024 pbc="F F F"
Al		0.27441882		-2.33164558		-1.82823377		0.00068558		-0.00048739		-5.609e-05
Al		2.03804164		-0.54022914		-0.80580543		0.00049684		-0.00087798		0.00011628
Al		-0.33771691		0.31221774		-1.80282429		-0.0003897		0.00080756		0.00025028
F		3.48567022		-0.21216905		-0.09958853		-0.00011625		-2.901e-05		-7.177e-05
F		-0.12705363		-3.88314507		-2.19396196		6.093e-05		0.00011956		5.876e-05
F		2.02917541		-1.79052812		-2.20162729		-0.00019848		0.00115647		-0.00181763