12
Total energy -44222.680708127
 Al    0.274459   -2.331653   -1.828221
 Al    2.038043   -0.540270   -0.805810
 Al   -0.337723    0.312236   -1.802820
  F    3.485667   -0.212206   -0.099596
  F   -0.127013   -3.883149   -2.193943
  F    2.029139   -1.790421   -2.201752
  F    1.474673    0.603587   -2.179100
  F   -1.382651    1.534798   -2.142456
  F   -1.060064   -1.254908   -1.072264
  F   -0.122330   -1.018431   -3.104615
  F    0.536979    0.367489   -0.146563
  F    1.091018   -2.026586   -0.169401
