12
Lattice="0.0 0.0 0.0 0.0 0.0 0.0 0.0 0.0 0.0" Properties=species:S:1:pos:R:3:forces:R:3 energy=-44228.44641727 pbc="F F F"
Al		1.27566786		0.03276735		2.46422027		-3.39e-06		-0.00086493		-9.278e-05
Al		1.31772492		1.22692083		-0.09076559		-1.996e-05		0.00045908		0.00026496
Al		-0.34025382		0.82604192		-2.33697095		-0.00058903		2.08e-06		-9.279e-05
F		-1.56243447		-0.27957840		-2.19549661		8.637e-05		0.00010524		0.00047868
F		1.99506826		-0.23324974		0.81125161		0.00032301		-0.00038422		0.00034593
F		-0.01038975		1.71508763		-3.68970266		0.00039729		2.191e-05		0.00012101
F		-0.25728932		1.84402134		-0.82808604		-0.00010317		0.00035838		-0.00035393
F		2.50882645		2.34742724		-0.30829771		6.479e-05		-7.054e-05		0.00019353
F		1.18076430		0.15757009		-1.58752507		7.271e-05		-4.873e-05		0.0004604
F		0.54727068		1.44444247		1.57125764		-0.00036803		8.488e-05		-0.00095282
F		2.41582975		0.52441478		3.55386263		0.00025061		0.00062451		-0.00035917
F		0.10914815		-1.10454652		2.75069847		-0.0001112		-0.00028766		-1.302e-05
12
Lattice="0.0 0.0 0.0 0.0 0.0 0.0 0.0 0.0 0.0" Properties=species:S:1:pos:R:3:forces:R:3 energy=-44222.80997127 pbc="F F F"
Al		1.27559929		0.03284762		2.46423189		0.00089882		-3.705e-05		-0.00161657
Al		1.31780777		1.22694111		-0.09079449		-0.00152048		-0.00037208		0.00063533
Al		-0.34030225		0.82588008		-2.33687479		0.00075538		0.00076335		0.0008328
F		-1.56251834		-0.27966507		-2.19577147		-0.00093611		-0.00095681		0.00055217
F		1.99502933		-0.23321372		0.81121061		0.00023759		-0.00036449		0.00080433
F		-0.01009828		1.71524926		-3.68926996		0.00027097		0.0005371		-0.00100161
F		-0.25750160		1.84363828		-0.82780477		9.799e-05		0.00029215		-0.00052975
F		2.50871672		2.34753997		-0.30862430		0.00083276		0.00053139		0.00013279
F		1.18078274		0.15747917		-1.58751898		-5.295e-05		0.00012372		0.00056619
F		0.54755836		1.44470834		1.57139295		-0.00028057		8.998e-05		-0.00145614
F		2.41584894		0.52428875		3.55381512		0.00101748		0.00078939		0.0006164
F		0.10901032		-1.10437479		2.75045418		-0.00132087		-0.00139665		0.00046405
12
Lattice="0.0 0.0 0.0 0.0 0.0 0.0 0.0 0.0 0.0" Properties=species:S:1:pos:R:3:forces:R:3 energy=-44221.10327306 pbc="F F F"
Al		1.27548170		0.03288768		2.46421208		0.00196317		0.00082524		-0.00308969
Al		1.31785286		1.22694068		-0.09084653		-0.00264931		-0.00111331		0.00148556
Al		-0.34034863		0.82570514		-2.33671686		0.00178323		0.00149812		0.00121033
F		-1.56266815		-0.27972921		-2.19600138		-0.00138379		-0.00142027		0.00030491
F		1.99489571		-0.23323549		0.81111702		0.00026359		-0.00053388		0.00141603
F		-0.00946857		1.71552065		-3.68863750		-0.00034634		0.00055467		-0.00184848
F		-0.25777529		1.84324646		-0.82747070		0.00057808		-5.576e-05		-0.00100863
F		2.50859161		2.34763520		-0.30890556		0.00131581		0.00090555		2.864e-05
F		1.18077853		0.15730471		-1.58747528		-0.00051845		0.00062363		0.00068438
F		0.54773116		1.44487781		1.57146631		-0.00035632		0.00018566		-0.00172065
F		2.41599291		0.52447528		3.55343433		0.00107093		0.00036804		0.00149477
F		0.10886916		-1.10430991		2.75027006		-0.00172059		-0.00183768		0.00104282
12
Lattice="0.0 0.0 0.0 0.0 0.0 0.0 0.0 0.0 0.0" Properties=species:S:1:pos:R:3:forces:R:3 energy=-44221.08753746 pbc="F F F"
Al		1.27547163		0.03302060		2.46424047		0.00261447		-0.00035822		-0.00093946
Al		1.31761601		1.22661216		-0.09068908		-0.00318827		2.08e-06		-0.00076937
Al		-0.34038290		0.82562151		-2.33680058		0.00227565		0.00182871		0.00140708
F		-1.56301201		-0.27969213		-2.19702995		0.00028765		0.00025154		-0.00076198
F		1.99440616		-0.23372425		0.81097188		-0.00056823		0.00057009		0.00283294
F		-0.00792656		1.71648279		-3.68771653		-0.00211524		-0.00093574		-0.00138065
F		-0.25828906		1.84244101		-0.82703038		-6.546e-05		0.00071429		-0.00104167
F		2.50819360		2.34746373		-0.30905359		0.00066623		2.694e-05		0.00054435
F		1.18051876		0.15700737		-1.58735785		-0.00015227		-0.00019624		0.00021015
F		0.54751360		1.44488082		1.57163730		0.00071923		-0.00084598		-0.00225878
F		2.41682142		0.52548220		3.55230477		-0.00092167		-0.00120978		0.00097848
F		0.10900235		-1.10427681		2.75096954		0.00044792		0.00015229		0.00117888
12
Lattice="0.0 0.0 0.0 0.0 0.0 0.0 0.0 0.0 0.0" Properties=species:S:1:pos:R:3:forces:R:3 energy=-44221.03453451 pbc="F F F"
Al		1.27613895		0.03340652		2.46512727		0.00177082		-0.00385241		0.00435863
Al		1.31599959		1.22516860		-0.09053008		0.00269513		0.00443455		0.00069776
Al		-0.33999191		0.82617006		-2.33775907		-0.00365949		-0.00033087		-0.00525572
F		-1.56356417		-0.27895170		-2.20147722		0.00658044		0.00611597		-0.00223186
F		1.99232107		-0.23526526		0.81098190		0.000814		-0.00093192		0.00262637
F		-0.00424645		1.71956705		-3.68646432		-0.00489148		-0.00522077		0.00334743
F		-0.26000725		1.84076272		-0.82644487		0.00079107		0.00045692		-0.00161481
F		2.50674468		2.34616980		-0.30866399		-0.0035291		-0.00375562		0.00087461
F		1.17965367		0.15597499		-1.58748872		-0.00062623		0.00063304		0.00028396
F		0.54646057		1.44386109		1.57195875		-0.00066278		0.00070476		-0.00142158
F		2.41998779		0.52862938		3.54967126		-0.00659682		-0.00474944		-0.00214479
F		0.11043646		-1.10417425		2.75553510		0.00731444		0.0064958		0.00048
12
Lattice="0.0 0.0 0.0 0.0 0.0 0.0 0.0 0.0 0.0" Properties=species:S:1:pos:R:3:forces:R:3 energy=-44221.03109932 pbc="F F F"
Al		1.27792960		0.03429200		2.46707974		0.00013411		-0.00855543		0.01346296
Al		1.31281172		1.22220589		-0.08971347		0.00777079		0.01008143		-0.00423084
Al		-0.33926813		0.82766541		-2.34054689		-0.00785264		-0.00215917		-0.00924321
F		-1.56421832		-0.27704711		-2.21111256		0.01088382		0.01009901		-0.00256067
F		1.98865481		-0.23851996		0.81136675		0.00093788		8.643e-05		0.00195006
F		0.00100708		1.72503356		-3.68569630		-0.0062917		-0.00841692		0.00752338
F		-0.26267121		1.83787536		-0.82614963		-0.00142746		0.00322547		0.00012104
F		2.50390331		2.34321351		-0.30736864		-0.00698462		-0.00709189		0.00188765
F		1.17774408		0.15460067		-1.58785670		0.00193937		-0.00214839		-0.00070178
F		0.54404499		1.44178708		1.57284340		2.046e-05		0.00066922		-0.00122095
F		2.42570824		0.53373399		3.54580478		-0.01043144		-0.00644638		-0.00546682
F		0.11428683		-1.10352139		2.76579552		0.01130143		0.01065661		-0.00152081
12
Lattice="0.0 0.0 0.0 0.0 0.0 0.0 0.0 0.0 0.0" Properties=species:S:1:pos:R:3:forces:R:3 energy=-44221.03093684 pbc="F F F"
Al		1.27976752		0.03500222		2.46933292		-0.00080531		-0.00788426		0.01307382
Al		1.30970371		1.21953161		-0.08932291		0.01121732		0.01035055		-0.00097596
Al		-0.33845411		0.82925058		-2.34327998		-0.01074942		-0.00324455		-0.01221017
F		-1.56451096		-0.27495062		-2.22055824		0.01029369		0.00918048		-0.0008518
F		1.98514549		-0.24124546		0.81194177		0.00301365		-0.00208965		-0.00046198
F		0.00502876		1.72977748		-3.68550229		-0.00490278		-0.00792637		0.00836142
F		-0.26521829		1.83566984		-0.82614374		-0.00064245		0.00261632		0.00025186
F		2.50123592		2.34029735		-0.30599672		-0.00712599		-0.0067161		0.00109764
F		1.17612860		0.15324065		-1.58850353		0.00185155		-0.00123263		-0.00023391
F		0.54199277		1.43956697		1.57355076		-0.0021073		0.00308006		0.00030519
F		2.43084203		0.53797242		3.54287948		-0.00985889		-0.00572213		-0.00561821
F		0.11827154		-1.10279404		2.77604848		0.00981595		0.00958827		-0.0027379
12
Lattice="0.0 0.0 0.0 0.0 0.0 0.0 0.0 0.0 0.0" Properties=species:S:1:pos:R:3:forces:R:3 energy=-44221.03099934 pbc="F F F"
Al		1.28129678		0.03557033		2.47117039		-0.00134541		-0.00485973		0.00831296
Al		1.30743533		1.21748391		-0.08877764		0.0069662		0.00618885		-0.00221303
Al		-0.33796830		0.83052533		-2.34576956		-0.00622524		-0.0020409		-0.00602266
F		-1.56464562		-0.27314009		-2.22837836		0.00412672		0.00322601		0.00152651
F		1.98264729		-0.24349345		0.81248436		0.00246693		-0.00106246		-0.00116805
F		0.00754927		1.73323526		-3.68572747		-0.00187289		-0.00364869		0.00380857
F		-0.26694063		1.83398011		-0.82637191		-0.00167018		0.00314154		0.00104664
F		2.49913948		2.33792134		-0.30482809		-0.00260869		-0.00238657		0.00038309
F		1.17478806		0.15244357		-1.58901921		0.00274038		-0.00221777		-0.00043777
F		0.54029956		1.43795353		1.57426672		-0.00122113		0.00228136		0.0005705
F		2.43456418		0.54085388		3.54093121		-0.00444922		-0.00233068		-0.00248897
F		0.12176759		-1.10201472		2.78446557		0.00309252		0.00370904		-0.00331777
12
Lattice="0.0 0.0 0.0 0.0 0.0 0.0 0.0 0.0 0.0" Properties=species:S:1:pos:R:3:forces:R:3 energy=-44221.03092988 pbc="F F F"
Al		1.28176066		0.03567514		2.47186051		-0.00132244		-0.00157082		0.00215792
Al		1.30677632		1.21694310		-0.08873196		0.00373507		0.00211453		-6.578e-05
Al		-0.33783174		0.83091401		-2.34654421		-0.00316569		-0.00119444		-0.00197872
F		-1.56461975		-0.27251451		-2.23083633		-4.594e-05		-0.000771		0.00279361
F		1.98189331		-0.24407642		0.81269148		0.00252549		-0.00132297		-0.00152762
F		0.00812493		1.73415849		-3.68582405		-4.462e-05		-0.00057693		0.00017474
F		-0.26749331		1.83359945		-0.82648146		-0.0008851		0.0019877		0.00055998
F		2.49851164		2.33719289		-0.30446533		0.00064867		0.00085019		-0.00049661
F		1.17445258		0.15216845		-1.58926194		0.00187291		-0.00114261		-1.267e-05
F		0.53986759		1.43742772		1.57445723		-0.00140436		0.00228924		0.00093245
F		2.43559270		0.54158714		3.54045651		-0.00066401		-0.00033487		0.00039854
F		0.12289807		-1.10175646		2.78712556		-0.00124997		-0.00032803		-0.00293585
12
Lattice="0.0 0.0 0.0 0.0 0.0 0.0 0.0 0.0 0.0" Properties=species:S:1:pos:R:3:forces:R:3 energy=-44221.03092701 pbc="F F F"
Al		1.28210161		0.03559979		2.47269809		-0.00090928		0.00685977		-0.01449979
Al		1.30652947		1.21671147		-0.08860146		-0.00870993		-0.00916324		0.00073653
Al		-0.33802115		0.83113681		-2.34754021		0.00906737		0.00212851		0.01400421
F		-1.56465566		-0.27193424		-2.23323231		-0.0096934		-0.00966721		0.00457506
F		1.98154045		-0.24466005		0.81293009		-0.00093142		0.00227642		0.00057994
F		0.00828005		1.73474063		-3.68598601		0.00305124		0.00634924		-0.00962819
F		-0.26786063		1.83341048		-0.82671219		0.00077397		-0.00119414		-0.00115094
F		2.49808326		2.33663836		-0.30415457		0.00887406		0.00855924		-0.00181036
F		1.17422577		0.15205379		-1.58957183		-0.00100972		0.0013502		0.00076004
F		0.53947229		1.43718650		1.57480099		0.00207428		-0.00212217		9.34e-06
F		2.43622009		0.54193664		3.54015757		0.00817743		0.00392107		0.00791623
F		0.12401744		-1.10150119		2.78965783		-0.01076461		-0.00929768		-0.00149208
12
Lattice="0.0 0.0 0.0 0.0 0.0 0.0 0.0 0.0 0.0" Properties=species:S:1:pos:R:3:forces:R:3 energy=-44221.03093069 pbc="F F F"
Al		1.28223024		0.03485217		2.47463491		0.00015849		0.02709614		-0.05593975
Al		1.30697970		1.21721170		-0.08873819		-0.03337407		-0.03310096		0.00651027
Al		-0.33898360		0.83104922		-2.34932355		0.03551047		0.00884897		0.04940892
F		-1.56533846		-0.27172517		-2.23613758		-0.01934426		-0.01853679		0.00637914
F		1.98181667		-0.24534812		0.81334865		-0.01422027		0.01569019		0.00988192
F		0.00806101		1.73526307		-3.68660045		0.00562218		0.01357865		-0.02120883
F		-0.26851901		1.83398077		-0.82717295		0.0124716		-0.0180196		-0.01090971
F		2.49838671		2.33671372		-0.30396565		0.01779191		0.0172111		-0.00366557
F		1.17447227		0.15172826		-1.59048487		-0.01673288		0.01689915		0.00550414
F		0.53912374		1.43739572		1.57556461		0.01494467		-0.01890687		-0.00381844
F		2.43689006		0.54204047		3.54039598		0.01752948		0.00772636		0.01758846
F		0.12481368		-1.10184283		2.79292508		-0.02035731		-0.01848636		0.00026946
12
Lattice="0.0 0.0 0.0 0.0 0.0 0.0 0.0 0.0 0.0" Properties=species:S:1:pos:R:3:forces:R:3 energy=-44221.03093115 pbc="F F F"
Al		1.28208117		0.03306723		2.47840358		0.00083184		0.04442589		-0.09255386
Al		1.30856392		1.21876358		-0.08895331		-0.04334423		-0.04230993		0.00744726
Al		-0.34139235		0.83045642		-2.35276404		0.05956599		0.01440763		0.08287126
F		-1.56860952		-0.27358844		-2.23936927		0.015961		0.01376447		0.00226363
F		1.98359382		-0.24699653		0.81391559		-0.05293457		0.05776313		0.03754457
F		0.00799341		1.73700155		-3.68960681		-0.00659246		-0.01218442		0.01198078
F		-0.27002182		1.83591369		-0.82789233		0.04638903		-0.06337602		-0.03770292
F		2.50113814		2.33901293		-0.30420879		-0.01374821		-0.0120217		0.00205328
F		1.17559047		0.15070859		-1.59249222		-0.05935441		0.06085207		0.0187747
F		0.53823888		1.43888103		1.57749893		0.05447025		-0.06741564		-0.01700047
F		2.43919048		0.54259329		3.54259496		-0.01453553		-0.00812544		-0.00731072
F		0.12356639		-1.10449434		2.79731970		0.01329132		0.01421997		-0.00836752
12
Lattice="0.0 0.0 0.0 0.0 0.0 0.0 0.0 0.0 0.0" Properties=species:S:1:pos:R:3:forces:R:3 energy=-44221.03093117 pbc="F F F"
Al		1.28195603		0.03052338		2.48386075		-0.00033551		-0.00107364		0.00380746
Al		1.31041522		1.22075179		-0.08934389		0.07868708		0.07105656		-0.01254253
Al		-0.34467640		0.82960358		-2.35763768		-0.00548905		-0.00135147		-0.0033325
F		-1.57825911		-0.28137387		-2.24084129		0.2246837		0.20335706		-0.02269051
F		1.98794054		-0.25160333		0.81375886		-0.14172243		0.16120144		0.10148266
F		0.00997896		1.74351189		-3.69961614		-0.07165463		-0.16799353		0.23133839
F		-0.27457381		1.84074777		-0.82790113		0.13486385		-0.17026922		-0.10069705
F		2.50986174		2.34693571		-0.30558867		-0.21220534		-0.19734892		0.03735226
F		1.17890596		0.14651956		-1.59627220		-0.15892618		0.17142158		0.05245901
F		0.53500326		1.44302965		1.58141564		0.15011574		-0.17803894		-0.05173544
F		2.44762355		0.54592997		3.55036019		-0.211139		-0.09901991		-0.1777636
F		0.11575707		-1.11325710		2.80225156		0.21312177		0.20805899		-0.05767815
12
Lattice="0.0 0.0 0.0 0.0 0.0 0.0 0.0 0.0 0.0" Properties=species:S:1:pos:R:3:forces:R:3 energy=-44221.03093119 pbc="F F F"
Al		1.27974870		0.02689320		2.48766253		-0.05412104		0.65575881		-1.54457271
Al		1.32265939		1.23214463		-0.09135097		-1.51514646		-1.42165889		0.27132511
Al		-0.34902891		0.82699547		-2.36055105		0.93170408		0.1691618		1.38933481
F		-1.54024660		-0.24413682		-2.25099413		-1.22156081		-1.09794665		0.10952413
F		1.97207876		-0.22753648		0.82220196		0.20762256		-0.2535834		-0.11281678
F		-0.00539492		1.70949128		-3.65290162		0.36010782		0.94882218		-1.41151395
F		-0.25311967		1.82130773		-0.83732145		-0.21991719		0.24651683		0.1162982
F		2.47392037		2.31312757		-0.29906890		1.4578834		1.36839684		-0.26287648
F		1.16335772		0.17038905		-1.58592611		0.21043562		-0.25553832		-0.11518602
F		0.55564282		1.42421687		1.57034692		-0.21844516		0.24332898		0.11424969
F		2.40453570		0.52536049		3.51401337		1.21336736		0.52949353		1.12612304
F		0.15577963		-1.07693398		2.79833546		-1.15193018		-1.13275172		0.32011097
12
Lattice="0.0 0.0 0.0 0.0 0.0 0.0 0.0 0.0 0.0" Properties=species:S:1:pos:R:3:forces:R:3 energy=-44221.03093118 pbc="F F F"
Al		1.28481347		0.02811108		2.49392747		-0.02738288		-0.4902318		1.02870573
Al		1.30749675		1.21811925		-0.08866271		1.1393545		1.07153911		-0.20664081
Al		-0.34890617		0.83064366		-2.36732264		-0.6760281		-0.17079654		-0.90336888
F		-1.63935839		-0.34111759		-2.22310485		1.64589448		1.5065971		-0.21055363
F		2.02055864		-0.30024728		0.79672464		-0.76122921		0.94302569		0.55466642
F		0.03776372		1.79713522		-3.76830901		-0.52041748		-1.25208998		1.78164703
F		-0.31772470		1.87956445		-0.80898081		0.78733893		-0.92026907		-0.55831217
F		2.56663263		2.40108344		-0.31649983		-1.61558998		-1.51863508		0.29308173
F		1.20961110		0.09808091		-1.61630434		-0.84471684		0.98452442		0.30560801
F		0.49327341		1.48117731		1.60413006		0.87034655		-0.96005271		-0.31011574
F		2.51475310		0.58033366		3.60237213		-1.58849846		-0.72795888		-1.40055372
F		0.05101944		-1.17156511		2.80647588		1.59092849		1.53434773		-0.37416397
12
Lattice="0.0 0.0 0.0 0.0 0.0 0.0 0.0 0.0 0.0" Properties=species:S:1:pos:R:3:forces:R:3 energy=-44228.44641727 pbc="F F F"
Al		1.27566786		0.03276735		2.46422027		-3.39e-06		-0.00086493		-9.278e-05
Al		1.31772492		1.22692083		-0.09076559		-1.996e-05		0.00045908		0.00026496
Al		-0.34025382		0.82604192		-2.33697095		-0.00058903		2.08e-06		-9.279e-05
F		-1.56243447		-0.27957840		-2.19549661		8.637e-05		0.00010524		0.00047868
F		1.99506826		-0.23324974		0.81125161		0.00032301		-0.00038422		0.00034593
F		-0.01038975		1.71508763		-3.68970266		0.00039729		2.191e-05		0.00012101
F		-0.25728932		1.84402134		-0.82808604		-0.00010317		0.00035838		-0.00035393
F		2.50882645		2.34742724		-0.30829771		6.479e-05		-7.054e-05		0.00019353
F		1.18076430		0.15757009		-1.58752507		7.271e-05		-4.873e-05		0.0004604
F		0.54727068		1.44444247		1.57125764		-0.00036803		8.488e-05		-0.00095282
F		2.41582975		0.52441478		3.55386263		0.00025061		0.00062451		-0.00035917
F		0.10914815		-1.10454652		2.75069847		-0.0001112		-0.00028766		-1.302e-05
12
Lattice="0.0 0.0 0.0 0.0 0.0 0.0 0.0 0.0 0.0" Properties=species:S:1:pos:R:3:forces:R:3 energy=-44222.80997127 pbc="F F F"
Al		1.27559929		0.03284762		2.46423189		0.00089882		-3.705e-05		-0.00161657
Al		1.31780777		1.22694111		-0.09079449		-0.00152048		-0.00037208		0.00063533
Al		-0.34030225		0.82588008		-2.33687479		0.00075538		0.00076335		0.0008328
F		-1.56251834		-0.27966507		-2.19577147		-0.00093611		-0.00095681		0.00055217
F		1.99502933		-0.23321372		0.81121061		0.00023759		-0.00036449		0.00080433
F		-0.01009828		1.71524926		-3.68926996		0.00027097		0.0005371		-0.00100161
F		-0.25750160		1.84363828		-0.82780477		9.799e-05		0.00029215		-0.00052975
F		2.50871672		2.34753997		-0.30862430		0.00083276		0.00053139		0.00013279
F		1.18078274		0.15747917		-1.58751898		-5.295e-05		0.00012372		0.00056619
F		0.54755836		1.44470834		1.57139295		-0.00028057		8.998e-05		-0.00145614
F		2.41584894		0.52428875		3.55381512		0.00101748		0.00078939		0.0006164
F		0.10901032		-1.10437479		2.75045418		-0.00132087		-0.00139665		0.00046405
12
Lattice="0.0 0.0 0.0 0.0 0.0 0.0 0.0 0.0 0.0" Properties=species:S:1:pos:R:3:forces:R:3 energy=-44221.10327306 pbc="F F F"
Al		1.27548170		0.03288768		2.46421208		0.00196317		0.00082524		-0.00308969
Al		1.31785286		1.22694068		-0.09084653		-0.00264931		-0.00111331		0.00148556
Al		-0.34034863		0.82570514		-2.33671686		0.00178323		0.00149812		0.00121033
F		-1.56266815		-0.27972921		-2.19600138		-0.00138379		-0.00142027		0.00030491
F		1.99489571		-0.23323549		0.81111702		0.00026359		-0.00053388		0.00141603
F		-0.00946857		1.71552065		-3.68863750		-0.00034634		0.00055467		-0.00184848
F		-0.25777529		1.84324646		-0.82747070		0.00057808		-5.576e-05		-0.00100863
F		2.50859161		2.34763520		-0.30890556		0.00131581		0.00090555		2.864e-05
F		1.18077853		0.15730471		-1.58747528		-0.00051845		0.00062363		0.00068438
F		0.54773116		1.44487781		1.57146631		-0.00035632		0.00018566		-0.00172065
F		2.41599291		0.52447528		3.55343433		0.00107093		0.00036804		0.00149477
F		0.10886916		-1.10430991		2.75027006		-0.00172059		-0.00183768		0.00104282
12
Lattice="0.0 0.0 0.0 0.0 0.0 0.0 0.0 0.0 0.0" Properties=species:S:1:pos:R:3:forces:R:3 energy=-44221.08753746 pbc="F F F"
Al		1.27547163		0.03302060		2.46424047		0.00261447		-0.00035822		-0.00093946
Al		1.31761601		1.22661216		-0.09068908		-0.00318827		2.08e-06		-0.00076937
Al		-0.34038290		0.82562151		-2.33680058		0.00227565		0.00182871		0.00140708
F		-1.56301201		-0.27969213		-2.19702995		0.00028765		0.00025154		-0.00076198
F		1.99440616		-0.23372425		0.81097188		-0.00056823		0.00057009		0.00283294
F		-0.00792656		1.71648279		-3.68771653		-0.00211524		-0.00093574		-0.00138065
F		-0.25828906		1.84244101		-0.82703038		-6.546e-05		0.00071429		-0.00104167
F		2.50819360		2.34746373		-0.30905359		0.00066623		2.694e-05		0.00054435
F		1.18051876		0.15700737		-1.58735785		-0.00015227		-0.00019624		0.00021015
F		0.54751360		1.44488082		1.57163730		0.00071923		-0.00084598		-0.00225878
F		2.41682142		0.52548220		3.55230477		-0.00092167		-0.00120978		0.00097848
F		0.10900235		-1.10427681		2.75096954		0.00044792		0.00015229		0.00117888
12
Lattice="0.0 0.0 0.0 0.0 0.0 0.0 0.0 0.0 0.0" Properties=species:S:1:pos:R:3:forces:R:3 energy=-44221.03453451 pbc="F F F"
Al		1.27613895		0.03340652		2.46512727		0.00177082		-0.00385241		0.00435863
Al		1.31599959		1.22516860		-0.09053008		0.00269513		0.00443455		0.00069776
Al		-0.33999191		0.82617006		-2.33775907		-0.00365949		-0.00033087		-0.00525572
F		-1.56356417		-0.27895170		-2.20147722		0.00658044		0.00611597		-0.00223186
F		1.99232107		-0.23526526		0.81098190		0.000814		-0.00093192		0.00262637
F		-0.00424645		1.71956705		-3.68646432		-0.00489148		-0.00522077		0.00334743
F		-0.26000725		1.84076272		-0.82644487		0.00079107		0.00045692		-0.00161481
F		2.50674468		2.34616980		-0.30866399		-0.0035291		-0.00375562		0.00087461
F		1.17965367		0.15597499		-1.58748872		-0.00062623		0.00063304		0.00028396
F		0.54646057		1.44386109		1.57195875		-0.00066278		0.00070476		-0.00142158
F		2.41998779		0.52862938		3.54967126		-0.00659682		-0.00474944		-0.00214479
F		0.11043646		-1.10417425		2.75553510		0.00731444		0.0064958		0.00048
12
Lattice="0.0 0.0 0.0 0.0 0.0 0.0 0.0 0.0 0.0" Properties=species:S:1:pos:R:3:forces:R:3 energy=-44221.03109932 pbc="F F F"
Al		1.27792960		0.03429200		2.46707974		0.00013411		-0.00855543		0.01346296
Al		1.31281172		1.22220589		-0.08971347		0.00777079		0.01008143		-0.00423084
Al		-0.33926813		0.82766541		-2.34054689		-0.00785264		-0.00215917		-0.00924321
F		-1.56421832		-0.27704711		-2.21111256		0.01088382		0.01009901		-0.00256067
F		1.98865481		-0.23851996		0.81136675		0.00093788		8.643e-05		0.00195006
F		0.00100708		1.72503356		-3.68569630		-0.0062917		-0.00841692		0.00752338
F		-0.26267121		1.83787536		-0.82614963		-0.00142746		0.00322547		0.00012104
F		2.50390331		2.34321351		-0.30736864		-0.00698462		-0.00709189		0.00188765
F		1.17774408		0.15460067		-1.58785670		0.00193937		-0.00214839		-0.00070178
F		0.54404499		1.44178708		1.57284340		2.046e-05		0.00066922		-0.00122095
F		2.42570824		0.53373399		3.54580478		-0.01043144		-0.00644638		-0.00546682
F		0.11428683		-1.10352139		2.76579552		0.01130143		0.01065661		-0.00152081
12
Lattice="0.0 0.0 0.0 0.0 0.0 0.0 0.0 0.0 0.0" Properties=species:S:1:pos:R:3:forces:R:3 energy=-44221.03093684 pbc="F F F"
Al		1.27976752		0.03500222		2.46933292		-0.00080531		-0.00788426		0.01307382
Al		1.30970371		1.21953161		-0.08932291		0.01121732		0.01035055		-0.00097596
Al		-0.33845411		0.82925058		-2.34327998		-0.01074942		-0.00324455		-0.01221017
F		-1.56451096		-0.27495062		-2.22055824		0.01029369		0.00918048		-0.0008518
F		1.98514549		-0.24124546		0.81194177		0.00301365		-0.00208965		-0.00046198
F		0.00502876		1.72977748		-3.68550229		-0.00490278		-0.00792637		0.00836142
F		-0.26521829		1.83566984		-0.82614374		-0.00064245		0.00261632		0.00025186
F		2.50123592		2.34029735		-0.30599672		-0.00712599		-0.0067161		0.00109764
F		1.17612860		0.15324065		-1.58850353		0.00185155		-0.00123263		-0.00023391
F		0.54199277		1.43956697		1.57355076		-0.0021073		0.00308006		0.00030519
F		2.43084203		0.53797242		3.54287948		-0.00985889		-0.00572213		-0.00561821
F		0.11827154		-1.10279404		2.77604848		0.00981595		0.00958827		-0.0027379
12
Lattice="0.0 0.0 0.0 0.0 0.0 0.0 0.0 0.0 0.0" Properties=species:S:1:pos:R:3:forces:R:3 energy=-44221.03099934 pbc="F F F"
Al		1.28129678		0.03557033		2.47117039		-0.00134541		-0.00485973		0.00831296
Al		1.30743533		1.21748391		-0.08877764		0.0069662		0.00618885		-0.00221303
Al		-0.33796830		0.83052533		-2.34576956		-0.00622524		-0.0020409		-0.00602266
F		-1.56464562		-0.27314009		-2.22837836		0.00412672		0.00322601		0.00152651
F		1.98264729		-0.24349345		0.81248436		0.00246693		-0.00106246		-0.00116805
F		0.00754927		1.73323526		-3.68572747		-0.00187289		-0.00364869		0.00380857
F		-0.26694063		1.83398011		-0.82637191		-0.00167018		0.00314154		0.00104664
F		2.49913948		2.33792134		-0.30482809		-0.00260869		-0.00238657		0.00038309
F		1.17478806		0.15244357		-1.58901921		0.00274038		-0.00221777		-0.00043777
F		0.54029956		1.43795353		1.57426672		-0.00122113		0.00228136		0.0005705
F		2.43456418		0.54085388		3.54093121		-0.00444922		-0.00233068		-0.00248897
F		0.12176759		-1.10201472		2.78446557		0.00309252		0.00370904		-0.00331777
12
Lattice="0.0 0.0 0.0 0.0 0.0 0.0 0.0 0.0 0.0" Properties=species:S:1:pos:R:3:forces:R:3 energy=-44221.03092988 pbc="F F F"
Al		1.28176066		0.03567514		2.47186051		-0.00132244		-0.00157082		0.00215792
Al		1.30677632		1.21694310		-0.08873196		0.00373507		0.00211453		-6.578e-05
Al		-0.33783174		0.83091401		-2.34654421		-0.00316569		-0.00119444		-0.00197872
F		-1.56461975		-0.27251451		-2.23083633		-4.594e-05		-0.000771		0.00279361
F		1.98189331		-0.24407642		0.81269148		0.00252549		-0.00132297		-0.00152762
F		0.00812493		1.73415849		-3.68582405		-4.462e-05		-0.00057693		0.00017474
F		-0.26749331		1.83359945		-0.82648146		-0.0008851		0.0019877		0.00055998
F		2.49851164		2.33719289		-0.30446533		0.00064867		0.00085019		-0.00049661
F		1.17445258		0.15216845		-1.58926194		0.00187291		-0.00114261		-1.267e-05
F		0.53986759		1.43742772		1.57445723		-0.00140436		0.00228924		0.00093245
F		2.43559270		0.54158714		3.54045651		-0.00066401		-0.00033487		0.00039854
F		0.12289807		-1.10175646		2.78712556		-0.00124997		-0.00032803		-0.00293585
12
Lattice="0.0 0.0 0.0 0.0 0.0 0.0 0.0 0.0 0.0" Properties=species:S:1:pos:R:3:forces:R:3 energy=-44221.03092701 pbc="F F F"
Al		1.28210161		0.03559979		2.47269809		-0.00090928		0.00685977		-0.01449979
Al		1.30652947		1.21671147		-0.08860146		-0.00870993		-0.00916324		0.00073653
Al		-0.33802115		0.83113681		-2.34754021		0.00906737		0.00212851		0.01400421
F		-1.56465566		-0.27193424		-2.23323231		-0.0096934		-0.00966721		0.00457506
F		1.98154045		-0.24466005		0.81293009		-0.00093142		0.00227642		0.00057994
F		0.00828005		1.73474063		-3.68598601		0.00305124		0.00634924		-0.00962819
F		-0.26786063		1.83341048		-0.82671219		0.00077397		-0.00119414		-0.00115094
F		2.49808326		2.33663836		-0.30415457		0.00887406		0.00855924		-0.00181036
F		1.17422577		0.15205379		-1.58957183		-0.00100972		0.0013502		0.00076004
F		0.53947229		1.43718650		1.57480099		0.00207428		-0.00212217		9.34e-06
F		2.43622009		0.54193664		3.54015757		0.00817743		0.00392107		0.00791623
F		0.12401744		-1.10150119		2.78965783		-0.01076461		-0.00929768		-0.00149208
12
Lattice="0.0 0.0 0.0 0.0 0.0 0.0 0.0 0.0 0.0" Properties=species:S:1:pos:R:3:forces:R:3 energy=-44221.03093069 pbc="F F F"
Al		1.28223024		0.03485217		2.47463491		0.00015849		0.02709614		-0.05593975
Al		1.30697970		1.21721170		-0.08873819		-0.03337407		-0.03310096		0.00651027
Al		-0.33898360		0.83104922		-2.34932355		0.03551047		0.00884897		0.04940892
F		-1.56533846		-0.27172517		-2.23613758		-0.01934426		-0.01853679		0.00637914
F		1.98181667		-0.24534812		0.81334865		-0.01422027		0.01569019		0.00988192
F		0.00806101		1.73526307		-3.68660045		0.00562218		0.01357865		-0.02120883
F		-0.26851901		1.83398077		-0.82717295		0.0124716		-0.0180196		-0.01090971
F		2.49838671		2.33671372		-0.30396565		0.01779191		0.0172111		-0.00366557
F		1.17447227		0.15172826		-1.59048487		-0.01673288		0.01689915		0.00550414
F		0.53912374		1.43739572		1.57556461		0.01494467		-0.01890687		-0.00381844
F		2.43689006		0.54204047		3.54039598		0.01752948		0.00772636		0.01758846
F		0.12481368		-1.10184283		2.79292508		-0.02035731		-0.01848636		0.00026946
12
Lattice="0.0 0.0 0.0 0.0 0.0 0.0 0.0 0.0 0.0" Properties=species:S:1:pos:R:3:forces:R:3 energy=-44221.03093115 pbc="F F F"
Al		1.28208117		0.03306723		2.47840358		0.00083184		0.04442589		-0.09255386
Al		1.30856392		1.21876358		-0.08895331		-0.04334423		-0.04230993		0.00744726
Al		-0.34139235		0.83045642		-2.35276404		0.05956599		0.01440763		0.08287126
F		-1.56860952		-0.27358844		-2.23936927		0.015961		0.01376447		0.00226363
F		1.98359382		-0.24699653		0.81391559		-0.05293457		0.05776313		0.03754457
F		0.00799341		1.73700155		-3.68960681		-0.00659246		-0.01218442		0.01198078
F		-0.27002182		1.83591369		-0.82789233		0.04638903		-0.06337602		-0.03770292
F		2.50113814		2.33901293		-0.30420879		-0.01374821		-0.0120217		0.00205328
F		1.17559047		0.15070859		-1.59249222		-0.05935441		0.06085207		0.0187747
F		0.53823888		1.43888103		1.57749893		0.05447025		-0.06741564		-0.01700047
F		2.43919048		0.54259329		3.54259496		-0.01453553		-0.00812544		-0.00731072
F		0.12356639		-1.10449434		2.79731970		0.01329132		0.01421997		-0.00836752
12
Lattice="0.0 0.0 0.0 0.0 0.0 0.0 0.0 0.0 0.0" Properties=species:S:1:pos:R:3:forces:R:3 energy=-44221.03093117 pbc="F F F"
Al		1.28195603		0.03052338		2.48386075		-0.00033551		-0.00107364		0.00380746
Al		1.31041522		1.22075179		-0.08934389		0.07868708		0.07105656		-0.01254253
Al		-0.34467640		0.82960358		-2.35763768		-0.00548905		-0.00135147		-0.0033325
F		-1.57825911		-0.28137387		-2.24084129		0.2246837		0.20335706		-0.02269051
F		1.98794054		-0.25160333		0.81375886		-0.14172243		0.16120144		0.10148266
F		0.00997896		1.74351189		-3.69961614		-0.07165463		-0.16799353		0.23133839
F		-0.27457381		1.84074777		-0.82790113		0.13486385		-0.17026922		-0.10069705
F		2.50986174		2.34693571		-0.30558867		-0.21220534		-0.19734892		0.03735226
F		1.17890596		0.14651956		-1.59627220		-0.15892618		0.17142158		0.05245901
F		0.53500326		1.44302965		1.58141564		0.15011574		-0.17803894		-0.05173544
F		2.44762355		0.54592997		3.55036019		-0.211139		-0.09901991		-0.1777636
F		0.11575707		-1.11325710		2.80225156		0.21312177		0.20805899		-0.05767815
12
Lattice="0.0 0.0 0.0 0.0 0.0 0.0 0.0 0.0 0.0" Properties=species:S:1:pos:R:3:forces:R:3 energy=-44221.03093119 pbc="F F F"
Al		1.27974870		0.02689320		2.48766253		-0.05412104		0.65575881		-1.54457271
Al		1.32265939		1.23214463		-0.09135097		-1.51514646		-1.42165889		0.27132511
Al		-0.34902891		0.82699547		-2.36055105		0.93170408		0.1691618		1.38933481
F		-1.54024660		-0.24413682		-2.25099413		-1.22156081		-1.09794665		0.10952413
F		1.97207876		-0.22753648		0.82220196		0.20762256		-0.2535834		-0.11281678
F		-0.00539492		1.70949128		-3.65290162		0.36010782		0.94882218		-1.41151395
F		-0.25311967		1.82130773		-0.83732145		-0.21991719		0.24651683		0.1162982
F		2.47392037		2.31312757		-0.29906890		1.4578834		1.36839684		-0.26287648